<?xml version="1.0" encoding="UTF-8"?>

<!-- generated on 01/16/19 15:12:41 by Eclipse SUMO GUI Version 1.0.1
<configuration xmlns:xsi="http://www.w3.org/2001/XMLSchema-instance" xsi:noNamespaceSchemaLocation="http://sumo.dlr.de/xsd/sumoConfiguration.xsd">

    <input>
        <net-file value="intersection.net.xml"/>
        <route-files value="intersectiontest.rou.xml"/>
    </input>

    <output>
        <queue-output value="queue.xml"/>
        <tripinfo-output value="tripinfo.xml"/>
    </output>

    <time>
        <begin value="0"/>
        <end value="3600"/>
    </time>

    <processing>
        <collision.mingap-factor value="0"/>
        <time-to-teleport value="100"/>
    </processing>

    <traci_server>
        <remote-port value="54979"/>
    </traci_server>

</configuration>
-->

<queue-export xmlns:xsi="http://www.w3.org/2001/XMLSchema-instance" xsi:noNamespaceSchemaLocation="http://sumo.dlr.de/xsd/queue_file.xsd">
    <data timestep="0.00">
        <lanes/>
    </data>
    <data timestep="1.00">
        <lanes/>
    </data>
    <data timestep="2.00">
        <lanes/>
    </data>
    <data timestep="3.00">
        <lanes/>
    </data>
    <data timestep="4.00">
        <lanes>
            <lane id="d4i_1" queueing_time="1.00" queueing_length="136.80" queueing_length_experimental="0.00"/>
        </lanes>
    </data>
    <data timestep="5.00">
        <lanes>
            <lane id="a1i_1" queueing_time="1.00" queueing_length="138.25" queueing_length_experimental="0.00"/>
            <lane id="a4i_2" queueing_time="1.00" queueing_length="137.85" queueing_length_experimental="0.00"/>
            <lane id="b1i_1" queueing_time="1.00" queueing_length="137.00" queueing_length_experimental="0.00"/>
        </lanes>
    </data>
    <data timestep="6.00">
        <lanes>
            <lane id="a4i_2" queueing_time="2.00" queueing_length="137.85" queueing_length_experimental="0.00"/>
            <lane id="c2i_1" queueing_time="1.00" queueing_length="137.13" queueing_length_experimental="0.00"/>
            <lane id="c3i_1" queueing_time="1.00" queueing_length="136.86" queueing_length_experimental="0.00"/>
        </lanes>
    </data>
    <data timestep="7.00">
        <lanes>
            <lane id="a4i_2" queueing_time="3.00" queueing_length="137.85" queueing_length_experimental="0.00"/>
        </lanes>
    </data>
    <data timestep="8.00">
        <lanes>
            <lane id="a4i_2" queueing_time="4.00" queueing_length="137.85" queueing_length_experimental="0.00"/>
        </lanes>
    </data>
    <data timestep="9.00">
        <lanes>
            <lane id="a4i_2" queueing_time="5.00" queueing_length="137.85" queueing_length_experimental="0.00"/>
        </lanes>
    </data>
    <data timestep="10.00">
        <lanes>
            <lane id="a4i_2" queueing_time="6.00" queueing_length="137.85" queueing_length_experimental="0.00"/>
            <lane id="b2i_0" queueing_time="1.00" queueing_length="138.52" queueing_length_experimental="0.00"/>
        </lanes>
    </data>
    <data timestep="11.00">
        <lanes>
            <lane id="a4i_2" queueing_time="7.00" queueing_length="137.85" queueing_length_experimental="0.00"/>
        </lanes>
    </data>
    <data timestep="12.00">
        <lanes>
            <lane id="a4i_2" queueing_time="8.00" queueing_length="137.85" queueing_length_experimental="0.00"/>
        </lanes>
    </data>
    <data timestep="13.00">
        <lanes>
            <lane id="a4i_2" queueing_time="9.00" queueing_length="137.85" queueing_length_experimental="0.00"/>
            <lane id="c2i_1" queueing_time="1.00" queueing_length="136.51" queueing_length_experimental="0.00"/>
        </lanes>
    </data>
    <data timestep="14.00">
        <lanes>
            <lane id="a4i_2" queueing_time="10.00" queueing_length="137.85" queueing_length_experimental="0.00"/>
        </lanes>
    </data>
    <data timestep="15.00">
        <lanes>
            <lane id="a4i_2" queueing_time="11.00" queueing_length="137.85" queueing_length_experimental="0.00"/>
        </lanes>
    </data>
    <data timestep="16.00">
        <lanes>
            <lane id="a1i_1" queueing_time="0.00" queueing_length="0.00" queueing_length_experimental="48.50"/>
            <lane id="a4i_2" queueing_time="12.00" queueing_length="137.85" queueing_length_experimental="0.00"/>
        </lanes>
    </data>
    <data timestep="17.00">
        <lanes>
            <lane id="a1i_2" queueing_time="1.00" queueing_length="48.50" queueing_length_experimental="48.50"/>
            <lane id="a4i_2" queueing_time="13.00" queueing_length="137.85" queueing_length_experimental="0.00"/>
        </lanes>
    </data>
    <data timestep="18.00">
        <lanes>
            <lane id="a1i_2" queueing_time="0.00" queueing_length="0.00" queueing_length_experimental="47.17"/>
            <lane id="a4i_2" queueing_time="14.00" queueing_length="137.85" queueing_length_experimental="0.00"/>
        </lanes>
    </data>
    <data timestep="19.00">
        <lanes>
            <lane id="a4i_2" queueing_time="15.00" queueing_length="137.85" queueing_length_experimental="0.00"/>
        </lanes>
    </data>
    <data timestep="20.00">
        <lanes>
            <lane id="a4i_2" queueing_time="16.00" queueing_length="137.85" queueing_length_experimental="6.08"/>
            <lane id="b1i_2" queueing_time="1.00" queueing_length="6.00" queueing_length_experimental="6.00"/>
        </lanes>
    </data>
    <data timestep="21.00">
        <lanes>
            <lane id="a4i_2" queueing_time="17.00" queueing_length="137.85" queueing_length_experimental="6.01"/>
            <lane id="b1i_2" queueing_time="2.00" queueing_length="6.00" queueing_length_experimental="6.00"/>
            <lane id="c3i_2" queueing_time="1.00" queueing_length="130.00" queueing_length_experimental="0.00"/>
        </lanes>
    </data>
    <data timestep="22.00">
        <lanes>
            <lane id="a4i_2" queueing_time="18.00" queueing_length="137.85" queueing_length_experimental="12.60"/>
            <lane id="b1i_2" queueing_time="3.00" queueing_length="6.00" queueing_length_experimental="6.00"/>
            <lane id="d4i_2" queueing_time="1.00" queueing_length="129.55" queueing_length_experimental="0.00"/>
        </lanes>
    </data>
    <data timestep="23.00">
        <lanes>
            <lane id="a4i_2" queueing_time="19.00" queueing_length="137.85" queueing_length_experimental="12.55"/>
            <lane id="b1i_2" queueing_time="4.00" queueing_length="6.00" queueing_length_experimental="6.00"/>
            <lane id="c2i_2" queueing_time="0.00" queueing_length="0.00" queueing_length_experimental="6.32"/>
        </lanes>
    </data>
    <data timestep="24.00">
        <lanes>
            <lane id="a4i_2" queueing_time="20.00" queueing_length="137.85" queueing_length_experimental="0.00"/>
            <lane id="b1i_2" queueing_time="5.00" queueing_length="6.00" queueing_length_experimental="6.00"/>
            <lane id="c2i_2" queueing_time="0.00" queueing_length="0.00" queueing_length_experimental="6.13"/>
            <lane id="c3i_1" queueing_time="1.00" queueing_length="133.78" queueing_length_experimental="0.00"/>
            <lane id="c3i_2" queueing_time="1.00" queueing_length="126.69" queueing_length_experimental="6.00"/>
        </lanes>
    </data>
    <data timestep="25.00">
        <lanes>
            <lane id="a4i_2" queueing_time="21.00" queueing_length="137.85" queueing_length_experimental="0.00"/>
            <lane id="c2i_2" queueing_time="1.00" queueing_length="6.06" queueing_length_experimental="6.06"/>
            <lane id="c3i_1" queueing_time="2.00" queueing_length="133.72" queueing_length_experimental="0.00"/>
            <lane id="c3i_2" queueing_time="2.00" queueing_length="6.00" queueing_length_experimental="13.32"/>
        </lanes>
    </data>
    <data timestep="26.00">
        <lanes>
            <lane id="a4i_2" queueing_time="22.00" queueing_length="137.85" queueing_length_experimental="0.00"/>
            <lane id="c2i_2" queueing_time="2.00" queueing_length="6.03" queueing_length_experimental="6.03"/>
            <lane id="c3i_1" queueing_time="3.00" queueing_length="133.65" queueing_length_experimental="0.00"/>
            <lane id="c3i_2" queueing_time="3.00" queueing_length="6.00" queueing_length_experimental="12.65"/>
        </lanes>
    </data>
    <data timestep="27.00">
        <lanes>
            <lane id="a4i_2" queueing_time="23.00" queueing_length="137.85" queueing_length_experimental="0.00"/>
            <lane id="c2i_2" queueing_time="3.00" queueing_length="6.01" queueing_length_experimental="6.01"/>
            <lane id="c3i_2" queueing_time="4.00" queueing_length="6.00" queueing_length_experimental="19.61"/>
        </lanes>
    </data>
    <data timestep="28.00">
        <lanes>
            <lane id="a1i_2" queueing_time="1.00" queueing_length="6.00" queueing_length_experimental="6.00"/>
            <lane id="a4i_2" queueing_time="24.00" queueing_length="137.85" queueing_length_experimental="0.00"/>
            <lane id="c2i_2" queueing_time="4.00" queueing_length="6.00" queueing_length_experimental="12.93"/>
            <lane id="c3i_2" queueing_time="5.00" queueing_length="12.51" queueing_length_experimental="19.23"/>
            <lane id="d3i_1" queueing_time="1.00" queueing_length="6.00" queueing_length_experimental="6.00"/>
        </lanes>
    </data>
    <data timestep="29.00">
        <lanes>
            <lane id="a1i_1" queueing_time="1.00" queueing_length="6.00" queueing_length_experimental="6.00"/>
            <lane id="a1i_2" queueing_time="2.00" queueing_length="6.00" queueing_length_experimental="12.67"/>
            <lane id="a4i_2" queueing_time="25.00" queueing_length="137.85" queueing_length_experimental="0.00"/>
            <lane id="b2i_2" queueing_time="0.00" queueing_length="0.00" queueing_length_experimental="6.00"/>
            <lane id="c2i_2" queueing_time="5.00" queueing_length="6.00" queueing_length_experimental="12.54"/>
            <lane id="c3i_1" queueing_time="0.00" queueing_length="0.00" queueing_length_experimental="5.00"/>
            <lane id="c3i_2" queueing_time="6.00" queueing_length="12.50" queueing_length_experimental="19.02"/>
        </lanes>
    </data>
    <data timestep="30.00">
        <lanes>
            <lane id="a1i_1" queueing_time="2.00" queueing_length="6.00" queueing_length_experimental="6.00"/>
            <lane id="a1i_2" queueing_time="3.00" queueing_length="6.00" queueing_length_experimental="12.55"/>
            <lane id="a4i_2" queueing_time="26.00" queueing_length="137.85" queueing_length_experimental="0.00"/>
            <lane id="c3i_1" queueing_time="1.00" queueing_length="5.00" queueing_length_experimental="5.00"/>
            <lane id="c3i_2" queueing_time="7.00" queueing_length="19.01" queueing_length_experimental="19.01"/>
        </lanes>
    </data>
    <data timestep="31.00">
        <lanes>
            <lane id="a1i_1" queueing_time="3.00" queueing_length="6.00" queueing_length_experimental="6.00"/>
            <lane id="a1i_2" queueing_time="4.00" queueing_length="12.50" queueing_length_experimental="12.50"/>
            <lane id="a4i_2" queueing_time="27.00" queueing_length="137.85" queueing_length_experimental="0.00"/>
            <lane id="c3i_1" queueing_time="2.00" queueing_length="5.00" queueing_length_experimental="5.00"/>
            <lane id="c3i_2" queueing_time="8.00" queueing_length="19.00" queueing_length_experimental="26.06"/>
        </lanes>
    </data>
    <data timestep="32.00">
        <lanes>
            <lane id="a4i_2" queueing_time="28.00" queueing_length="137.85" queueing_length_experimental="0.00"/>
            <lane id="c3i_1" queueing_time="3.00" queueing_length="5.00" queueing_length_experimental="5.00"/>
            <lane id="c3i_2" queueing_time="9.00" queueing_length="19.00" queueing_length_experimental="25.66"/>
        </lanes>
    </data>
    <data timestep="33.00">
        <lanes>
            <lane id="a4i_2" queueing_time="29.00" queueing_length="137.85" queueing_length_experimental="0.00"/>
            <lane id="c3i_1" queueing_time="4.00" queueing_length="5.00" queueing_length_experimental="5.00"/>
            <lane id="c3i_2" queueing_time="10.00" queueing_length="25.57" queueing_length_experimental="25.57"/>
            <lane id="d4i_2" queueing_time="1.00" queueing_length="6.00" queueing_length_experimental="6.00"/>
        </lanes>
    </data>
    <data timestep="34.00">
        <lanes>
            <lane id="a4i_2" queueing_time="30.00" queueing_length="137.85" queueing_length_experimental="0.00"/>
            <lane id="c3i_1" queueing_time="5.00" queueing_length="5.00" queueing_length_experimental="5.00"/>
            <lane id="c3i_2" queueing_time="11.00" queueing_length="25.53" queueing_length_experimental="32.64"/>
            <lane id="d3i_1" queueing_time="0.00" queueing_length="0.00" queueing_length_experimental="6.06"/>
        </lanes>
    </data>
    <data timestep="35.00">
        <lanes>
            <lane id="a4i_1" queueing_time="1.00" queueing_length="6.00" queueing_length_experimental="6.00"/>
            <lane id="a4i_2" queueing_time="31.00" queueing_length="137.85" queueing_length_experimental="0.00"/>
            <lane id="c3i_1" queueing_time="6.00" queueing_length="5.00" queueing_length_experimental="5.00"/>
            <lane id="c3i_2" queueing_time="12.00" queueing_length="25.51" queueing_length_experimental="32.28"/>
            <lane id="d3i_1" queueing_time="1.00" queueing_length="6.00" queueing_length_experimental="6.00"/>
        </lanes>
    </data>
    <data timestep="36.00">
        <lanes>
            <lane id="a4i_1" queueing_time="2.00" queueing_length="6.00" queueing_length_experimental="6.00"/>
            <lane id="a4i_2" queueing_time="32.00" queueing_length="137.85" queueing_length_experimental="0.00"/>
            <lane id="b1i_1" queueing_time="0.00" queueing_length="0.00" queueing_length_experimental="6.00"/>
            <lane id="c2i_1" queueing_time="1.00" queueing_length="6.00" queueing_length_experimental="6.00"/>
            <lane id="c3i_2" queueing_time="13.00" queueing_length="25.51" queueing_length_experimental="32.10"/>
            <lane id="d3i_1" queueing_time="2.00" queueing_length="6.00" queueing_length_experimental="6.00"/>
        </lanes>
    </data>
    <data timestep="37.00">
        <lanes>
            <lane id="a4i_1" queueing_time="3.00" queueing_length="6.00" queueing_length_experimental="6.00"/>
            <lane id="a4i_2" queueing_time="33.00" queueing_length="137.85" queueing_length_experimental="0.00"/>
            <lane id="b1i_1" queueing_time="1.00" queueing_length="6.00" queueing_length_experimental="6.00"/>
            <lane id="c2i_1" queueing_time="2.00" queueing_length="6.00" queueing_length_experimental="6.00"/>
            <lane id="c3i_2" queueing_time="14.00" queueing_length="32.02" queueing_length_experimental="38.64"/>
            <lane id="d3i_1" queueing_time="3.00" queueing_length="6.00" queueing_length_experimental="6.00"/>
            <lane id="d3i_2" queueing_time="0.00" queueing_length="0.00" queueing_length_experimental="6.19"/>
        </lanes>
    </data>
    <data timestep="38.00">
        <lanes>
            <lane id="a1i_2" queueing_time="0.00" queueing_length="0.00" queueing_length_experimental="5.00"/>
            <lane id="a4i_1" queueing_time="4.00" queueing_length="6.00" queueing_length_experimental="6.00"/>
            <lane id="a4i_2" queueing_time="34.00" queueing_length="137.85" queueing_length_experimental="6.23"/>
            <lane id="b1i_1" queueing_time="2.00" queueing_length="12.52" queueing_length_experimental="12.52"/>
            <lane id="c2i_1" queueing_time="3.00" queueing_length="6.00" queueing_length_experimental="6.00"/>
            <lane id="d3i_1" queueing_time="4.00" queueing_length="6.00" queueing_length_experimental="6.00"/>
            <lane id="d3i_2" queueing_time="0.00" queueing_length="0.00" queueing_length_experimental="6.07"/>
        </lanes>
    </data>
    <data timestep="39.00">
        <lanes>
            <lane id="a1i_2" queueing_time="1.00" queueing_length="5.00" queueing_length_experimental="15.30"/>
            <lane id="a4i_2" queueing_time="35.00" queueing_length="137.85" queueing_length_experimental="0.00"/>
            <lane id="a4o_2" queueing_time="1.00" queueing_length="139.17" queueing_length_experimental="0.00"/>
            <lane id="b1i_1" queueing_time="3.00" queueing_length="132.95" queueing_length_experimental="12.50"/>
            <lane id="b2i_1" queueing_time="1.00" queueing_length="136.58" queueing_length_experimental="0.00"/>
            <lane id="c2i_1" queueing_time="4.00" queueing_length="6.00" queueing_length_experimental="12.63"/>
            <lane id="d3i_1" queueing_time="5.00" queueing_length="6.00" queueing_length_experimental="6.00"/>
            <lane id="d3i_2" queueing_time="1.00" queueing_length="6.01" queueing_length_experimental="6.01"/>
        </lanes>
    </data>
    <data timestep="40.00">
        <lanes>
            <lane id="a1i_2" queueing_time="2.00" queueing_length="5.00" queueing_length_experimental="5.00"/>
            <lane id="a4i_2" queueing_time="36.00" queueing_length="137.85" queueing_length_experimental="0.00"/>
            <lane id="b1i_1" queueing_time="4.00" queueing_length="132.90" queueing_length_experimental="19.01"/>
            <lane id="c2i_1" queueing_time="5.00" queueing_length="6.00" queueing_length_experimental="12.53"/>
            <lane id="c3i_1" queueing_time="0.00" queueing_length="0.00" queueing_length_experimental="6.05"/>
            <lane id="d3i_1" queueing_time="6.00" queueing_length="6.00" queueing_length_experimental="6.00"/>
            <lane id="d3i_2" queueing_time="2.00" queueing_length="6.00" queueing_length_experimental="6.00"/>
        </lanes>
    </data>
    <data timestep="41.00">
        <lanes>
            <lane id="a1i_2" queueing_time="3.00" queueing_length="5.00" queueing_length_experimental="5.00"/>
            <lane id="a4i_2" queueing_time="37.00" queueing_length="137.85" queueing_length_experimental="0.00"/>
            <lane id="b1i_1" queueing_time="5.00" queueing_length="132.86" queueing_length_experimental="19.00"/>
            <lane id="c2i_1" queueing_time="6.00" queueing_length="12.51" queueing_length_experimental="19.22"/>
            <lane id="c3i_1" queueing_time="1.00" queueing_length="6.01" queueing_length_experimental="6.01"/>
        </lanes>
    </data>
    <data timestep="42.00">
        <lanes>
            <lane id="a1i_2" queueing_time="4.00" queueing_length="5.00" queueing_length_experimental="11.58"/>
            <lane id="a4i_2" queueing_time="38.00" queueing_length="137.85" queueing_length_experimental="0.00"/>
            <lane id="b1i_1" queueing_time="6.00" queueing_length="19.00" queueing_length_experimental="19.00"/>
            <lane id="c2i_1" queueing_time="7.00" queueing_length="12.50" queueing_length_experimental="19.03"/>
            <lane id="c3i_1" queueing_time="2.00" queueing_length="6.00" queueing_length_experimental="12.62"/>
            <lane id="d4i_1" queueing_time="0.00" queueing_length="0.00" queueing_length_experimental="6.00"/>
        </lanes>
    </data>
    <data timestep="43.00">
        <lanes>
            <lane id="a1i_1" queueing_time="0.00" queueing_length="0.00" queueing_length_experimental="5.00"/>
            <lane id="a1i_2" queueing_time="5.00" queueing_length="11.54" queueing_length_experimental="18.33"/>
            <lane id="a4i_1" queueing_time="0.00" queueing_length="0.00" queueing_length_experimental="6.51"/>
            <lane id="a4i_2" queueing_time="39.00" queueing_length="137.85" queueing_length_experimental="6.25"/>
            <lane id="b1i_1" queueing_time="7.00" queueing_length="19.00" queueing_length_experimental="25.59"/>
            <lane id="c2i_1" queueing_time="8.00" queueing_length="19.01" queueing_length_experimental="25.59"/>
            <lane id="c3i_1" queueing_time="3.00" queueing_length="12.55" queueing_length_experimental="12.55"/>
            <lane id="d4i_1" queueing_time="1.00" queueing_length="6.00" queueing_length_experimental="6.00"/>
        </lanes>
    </data>
    <data timestep="44.00">
        <lanes>
            <lane id="a1i_1" queueing_time="0.00" queueing_length="0.00" queueing_length_experimental="5.00"/>
            <lane id="a4i_1" queueing_time="0.00" queueing_length="0.00" queueing_length_experimental="6.17"/>
            <lane id="a4i_2" queueing_time="40.00" queueing_length="137.85" queueing_length_experimental="6.08"/>
            <lane id="c2i_1" queueing_time="9.00" queueing_length="25.51" queueing_length_experimental="25.51"/>
            <lane id="c3i_1" queueing_time="4.00" queueing_length="12.52" queueing_length_experimental="12.52"/>
            <lane id="d4i_1" queueing_time="2.00" queueing_length="6.00" queueing_length_experimental="6.00"/>
        </lanes>
    </data>
    <data timestep="45.00">
        <lanes>
            <lane id="a4i_1" queueing_time="0.00" queueing_length="0.00" queueing_length_experimental="6.04"/>
            <lane id="a4i_2" queueing_time="41.00" queueing_length="137.85" queueing_length_experimental="6.02"/>
            <lane id="c2i_1" queueing_time="10.00" queueing_length="25.51" queueing_length_experimental="25.51"/>
            <lane id="c3i_1" queueing_time="5.00" queueing_length="12.51" queueing_length_experimental="19.17"/>
            <lane id="d3i_2" queueing_time="0.00" queueing_length="0.00" queueing_length_experimental="6.29"/>
            <lane id="d4i_1" queueing_time="3.00" queueing_length="6.00" queueing_length_experimental="6.00"/>
            <lane id="d4i_2" queueing_time="1.00" queueing_length="6.00" queueing_length_experimental="6.00"/>
        </lanes>
    </data>
    <data timestep="46.00">
        <lanes>
            <lane id="a4i_1" queueing_time="1.00" queueing_length="6.02" queueing_length_experimental="6.02"/>
            <lane id="a4i_2" queueing_time="42.00" queueing_length="137.85" queueing_length_experimental="6.01"/>
            <lane id="c2i_1" queueing_time="11.00" queueing_length="25.50" queueing_length_experimental="25.50"/>
            <lane id="c3i_1" queueing_time="6.00" queueing_length="19.08" queueing_length_experimental="25.71"/>
            <lane id="d3i_2" queueing_time="0.00" queueing_length="0.00" queueing_length_experimental="6.06"/>
        </lanes>
    </data>
    <data timestep="47.00">
        <lanes>
            <lane id="a4i_1" queueing_time="2.00" queueing_length="6.01" queueing_length_experimental="6.01"/>
            <lane id="a4i_2" queueing_time="43.00" queueing_length="137.85" queueing_length_experimental="12.59"/>
            <lane id="c2i_1" queueing_time="12.00" queueing_length="25.50" queueing_length_experimental="25.50"/>
            <lane id="c2i_2" queueing_time="0.00" queueing_length="0.00" queueing_length_experimental="6.04"/>
            <lane id="c3i_1" queueing_time="7.00" queueing_length="25.61" queueing_length_experimental="25.61"/>
            <lane id="d3i_2" queueing_time="1.00" queueing_length="6.01" queueing_length_experimental="12.87"/>
        </lanes>
    </data>
    <data timestep="48.00">
        <lanes>
            <lane id="a4i_1" queueing_time="3.00" queueing_length="6.00" queueing_length_experimental="12.96"/>
            <lane id="a4i_2" queueing_time="44.00" queueing_length="137.85" queueing_length_experimental="12.51"/>
            <lane id="c2i_1" queueing_time="13.00" queueing_length="25.50" queueing_length_experimental="25.50"/>
            <lane id="d3i_2" queueing_time="2.00" queueing_length="6.00" queueing_length_experimental="20.11"/>
        </lanes>
    </data>
    <data timestep="49.00">
        <lanes>
            <lane id="a4i_2" queueing_time="45.00" queueing_length="137.85" queueing_length_experimental="0.00"/>
            <lane id="a4o_2" queueing_time="1.00" queueing_length="143.00" queueing_length_experimental="0.00"/>
            <lane id="c1i_2" queueing_time="0.00" queueing_length="0.00" queueing_length_experimental="6.14"/>
            <lane id="c2i_1" queueing_time="14.00" queueing_length="25.50" queueing_length_experimental="25.50"/>
            <lane id="d3i_2" queueing_time="3.00" queueing_length="12.51" queueing_length_experimental="19.51"/>
        </lanes>
    </data>
    <data timestep="50.00">
        <lanes>
            <lane id="a4i_2" queueing_time="46.00" queueing_length="137.85" queueing_length_experimental="0.00"/>
            <lane id="c1i_2" queueing_time="1.00" queueing_length="6.06" queueing_length_experimental="6.06"/>
            <lane id="c2i_1" queueing_time="15.00" queueing_length="25.50" queueing_length_experimental="25.50"/>
        </lanes>
    </data>
    <data timestep="51.00">
        <lanes>
            <lane id="a1i_1" queueing_time="0.00" queueing_length="0.00" queueing_length_experimental="6.00"/>
            <lane id="a4i_2" queueing_time="47.00" queueing_length="137.85" queueing_length_experimental="0.00"/>
            <lane id="c1i_2" queueing_time="2.00" queueing_length="6.02" queueing_length_experimental="6.02"/>
            <lane id="c2i_1" queueing_time="16.00" queueing_length="25.50" queueing_length_experimental="25.50"/>
            <lane id="c2i_2" queueing_time="0.00" queueing_length="0.00" queueing_length_experimental="6.39"/>
            <lane id="d4i_2" queueing_time="0.00" queueing_length="0.00" queueing_length_experimental="6.24"/>
        </lanes>
    </data>
    <data timestep="52.00">
        <lanes>
            <lane id="a1i_1" queueing_time="1.00" queueing_length="6.00" queueing_length_experimental="6.00"/>
            <lane id="a4i_2" queueing_time="48.00" queueing_length="137.85" queueing_length_experimental="0.00"/>
            <lane id="b2i_1" queueing_time="1.00" queueing_length="6.00" queueing_length_experimental="6.00"/>
            <lane id="b2i_2" queueing_time="0.00" queueing_length="0.00" queueing_length_experimental="6.00"/>
            <lane id="c1i_2" queueing_time="3.00" queueing_length="6.00" queueing_length_experimental="6.00"/>
            <lane id="c2i_1" queueing_time="17.00" queueing_length="25.50" queueing_length_experimental="25.50"/>
            <lane id="c2i_2" queueing_time="0.00" queueing_length="0.00" queueing_length_experimental="6.01"/>
            <lane id="d4i_1" queueing_time="1.00" queueing_length="136.55" queueing_length_experimental="0.00"/>
            <lane id="d4i_2" queueing_time="0.00" queueing_length="0.00" queueing_length_experimental="6.03"/>
        </lanes>
    </data>
    <data timestep="53.00">
        <lanes>
            <lane id="a1i_1" queueing_time="2.00" queueing_length="6.00" queueing_length_experimental="12.56"/>
            <lane id="a4i_2" queueing_time="49.00" queueing_length="137.85" queueing_length_experimental="0.00"/>
            <lane id="b2i_1" queueing_time="2.00" queueing_length="6.00" queueing_length_experimental="6.00"/>
            <lane id="b2i_2" queueing_time="1.00" queueing_length="6.00" queueing_length_experimental="6.00"/>
            <lane id="c1i_2" queueing_time="4.00" queueing_length="6.00" queueing_length_experimental="6.00"/>
            <lane id="c2i_1" queueing_time="18.00" queueing_length="25.50" queueing_length_experimental="25.50"/>
            <lane id="c2i_2" queueing_time="1.00" queueing_length="6.01" queueing_length_experimental="6.01"/>
            <lane id="d4i_2" queueing_time="1.00" queueing_length="6.01" queueing_length_experimental="6.01"/>
        </lanes>
    </data>
    <data timestep="54.00">
        <lanes>
            <lane id="a1i_1" queueing_time="3.00" queueing_length="12.51" queueing_length_experimental="19.10"/>
            <lane id="a4i_2" queueing_time="50.00" queueing_length="137.85" queueing_length_experimental="0.00"/>
            <lane id="b2i_1" queueing_time="3.00" queueing_length="6.00" queueing_length_experimental="6.00"/>
            <lane id="b2i_2" queueing_time="2.00" queueing_length="6.00" queueing_length_experimental="12.89"/>
            <lane id="c1i_2" queueing_time="5.00" queueing_length="6.00" queueing_length_experimental="6.00"/>
            <lane id="c2i_1" queueing_time="19.00" queueing_length="25.50" queueing_length_experimental="25.50"/>
            <lane id="c2i_2" queueing_time="2.00" queueing_length="6.00" queueing_length_experimental="6.00"/>
            <lane id="d4i_2" queueing_time="2.00" queueing_length="6.00" queueing_length_experimental="6.00"/>
        </lanes>
    </data>
    <data timestep="55.00">
        <lanes>
            <lane id="a1i_1" queueing_time="4.00" queueing_length="19.03" queueing_length_experimental="19.03"/>
            <lane id="a4i_1" queueing_time="0.00" queueing_length="0.00" queueing_length_experimental="5.00"/>
            <lane id="a4i_2" queueing_time="51.00" queueing_length="137.85" queueing_length_experimental="0.00"/>
            <lane id="b2i_1" queueing_time="4.00" queueing_length="6.00" queueing_length_experimental="6.00"/>
            <lane id="b2i_2" queueing_time="3.00" queueing_length="6.00" queueing_length_experimental="19.45"/>
            <lane id="c1i_2" queueing_time="6.00" queueing_length="6.00" queueing_length_experimental="6.00"/>
            <lane id="c2i_1" queueing_time="20.00" queueing_length="25.50" queueing_length_experimental="25.50"/>
            <lane id="c2i_2" queueing_time="3.00" queueing_length="6.00" queueing_length_experimental="6.00"/>
            <lane id="d4i_1" queueing_time="1.00" queueing_length="133.72" queueing_length_experimental="0.00"/>
            <lane id="d4i_2" queueing_time="3.00" queueing_length="6.00" queueing_length_experimental="6.00"/>
        </lanes>
    </data>
    <data timestep="56.00">
        <lanes>
            <lane id="a1i_1" queueing_time="5.00" queueing_length="19.01" queueing_length_experimental="25.59"/>