<?xml version="1.0" encoding="UTF-8"?>

<!-- generated on 01/19/19 18:08:14 by Eclipse SUMO GUI Version 1.0.1
<configuration xmlns:xsi="http://www.w3.org/2001/XMLSchema-instance" xsi:noNamespaceSchemaLocation="http://sumo.dlr.de/xsd/sumoConfiguration.xsd">

    <input>
        <net-file value="intersection.net.xml"/>
        <route-files value="intersectiontest.rou.xml"/>
    </input>

    <output>
        <queue-output value="queue.xml"/>
        <tripinfo-output value="tripinfo.xml"/>
    </output>

    <time>
        <begin value="0"/>
        <end value="3600"/>
    </time>

    <processing>
        <collision.mingap-factor value="0"/>
        <time-to-teleport value="100"/>
    </processing>

    <traci_server>
        <remote-port value="57091"/>
    </traci_server>

</configuration>
-->

<tripinfos xmlns:xsi="http://www.w3.org/2001/XMLSchema-instance" xsi:noNamespaceSchemaLocation="http://sumo.dlr.de/xsd/tripinfo_file.xsd">
    <tripinfo id="a1i.0" depart="2.00" departLane="a1i_0" departPos="5.10" departSpeed="0.00" departDelay="0.00" arrival="27.00" arrivalLane="a2o_0" arrivalPos="136.40" arrivalSpeed="13.34" duration="25.00" routeLength="276.73" waitingTime="0.00" waitingCount="0" stopTime="0.00" timeLoss="5.13" rerouteNo="0" devices="tripinfo_a1i.0" vType="car" speedFactor="0.94" vaporized=""/>
    <tripinfo id="a2i.0" depart="3.00" departLane="a2i_0" departPos="5.10" departSpeed="0.00" departDelay="0.00" arrival="28.00" arrivalLane="a3o_0" arrivalPos="136.40" arrivalSpeed="14.89" duration="25.00" routeLength="276.73" waitingTime="0.00" waitingCount="0" stopTime="0.00" timeLoss="5.30" rerouteNo="0" devices="tripinfo_a2i.0" vType="car" speedFactor="1.01" vaporized=""/>
    <tripinfo id="a3i.0" depart="0.00" departLane="a3i_0" departPos="5.10" departSpeed="0.00" departDelay="0.00" arrival="30.00" arrivalLane="a1o_1" arrivalPos="136.40" arrivalSpeed="14.64" duration="30.00" routeLength="294.90" waitingTime="2.00" waitingCount="2" stopTime="0.00" timeLoss="9.88" rerouteNo="0" devices="tripinfo_a3i.0" vType="car" speedFactor="1.06" vaporized=""/>
    <tripinfo id="a1i.2" depart="6.00" departLane="a1i_0" departPos="5.10" departSpeed="0.00" departDelay="0.00" arrival="35.00" arrivalLane="a3o_1" arrivalPos="136.40" arrivalSpeed="14.88" duration="29.00" routeLength="294.90" waitingTime="0.00" waitingCount="0" stopTime="0.00" timeLoss="8.86" rerouteNo="0" devices="tripinfo_a1i.2" vType="car" speedFactor="1.03" vaporized=""/>
    <tripinfo id="a3i.1" depart="6.00" departLane="a3i_0" departPos="5.10" departSpeed="0.00" departDelay="0.00" arrival="35.00" arrivalLane="a1o_1" arrivalPos="136.40" arrivalSpeed="13.55" duration="29.00" routeLength="294.90" waitingTime="1.00" waitingCount="1" stopTime="0.00" timeLoss="8.94" rerouteNo="0" devices="tripinfo_a3i.1" vType="car" speedFactor="1.05" vaporized=""/>
    <tripinfo id="a4i.2" depart="13.00" departLane="a4i_0" departPos="5.10" departSpeed="0.00" departDelay="0.00" arrival="36.00" arrivalLane="a3o_2" arrivalPos="136.40" arrivalSpeed="13.37" duration="23.00" routeLength="292.21" waitingTime="0.00" waitingCount="0" stopTime="0.00" timeLoss="5.25" rerouteNo="0" devices="tripinfo_a4i.2" vType="car@a4i.2" speedFactor="0.94" vaporized=""/>
    <tripinfo id="a2i.3" depart="11.00" departLane="a2i_0" departPos="5.10" departSpeed="0.00" departDelay="0.00" arrival="37.00" arrivalLane="a3o_0" arrivalPos="136.40" arrivalSpeed="14.59" duration="26.00" routeLength="276.73" waitingTime="0.00" waitingCount="0" stopTime="0.00" timeLoss="5.52" rerouteNo="0" devices="tripinfo_a2i.3" vType="car" speedFactor="0.99" vaporized=""/>
    <tripinfo id="a4i.3" depart="14.00" departLane="a4i_0" departPos="5.10" departSpeed="0.00" departDelay="0.00" arrival="38.00" arrivalLane="a1o_0" arrivalPos="136.40" arrivalSpeed="14.36" duration="24.00" routeLength="276.73" waitingTime="0.00" waitingCount="0" stopTime="0.00" timeLoss="4.98" rerouteNo="0" devices="tripinfo_a4i.3" vType="car" speedFactor="1.16" vaporized=""/>
    <tripinfo id="a3i.4" depart="14.00" departLane="a3i_0" departPos="5.10" departSpeed="0.00" departDelay="0.00" arrival="40.00" arrivalLane="a4o_0" arrivalPos="136.40" arrivalSpeed="12.84" duration="26.00" routeLength="276.73" waitingTime="0.00" waitingCount="0" stopTime="0.00" timeLoss="6.34" rerouteNo="0" devices="tripinfo_a3i.4" vType="car" speedFactor="0.94" vaporized=""/>
    <tripinfo id="a4i.0" depart="6.00" departLane="a4i_0" departPos="5.10" departSpeed="0.00" departDelay="0.00" arrival="41.00" arrivalLane="a3o_2" arrivalPos="136.40" arrivalSpeed="12.74" duration="35.00" routeLength="292.21" waitingTime="4.00" waitingCount="1" stopTime="0.00" timeLoss="13.37" rerouteNo="0" devices="tripinfo_a4i.0" vType="car@a4i.0" speedFactor="0.89" vaporized=""/>
    <tripinfo id="a2i.1" depart="6.00" departLane="a2i_0" departPos="5.10" departSpeed="0.00" departDelay="0.00" arrival="42.00" arrivalLane="a1o_2" arrivalPos="136.40" arrivalSpeed="12.41" duration="36.00" routeLength="292.21" waitingTime="4.00" waitingCount="1" stopTime="0.00" timeLoss="13.01" rerouteNo="0" devices="tripinfo_a2i.1" vType="car@a2i.1" speedFactor="0.83" vaporized=""/>
    <tripinfo id="a2i.2" depart="9.00" departLane="a2i_0" departPos="5.10" departSpeed="0.00" departDelay="0.00" arrival="43.00" arrivalLane="a1o_2" arrivalPos="136.40" arrivalSpeed="14.05" duration="34.00" routeLength="292.21" waitingTime="1.00" waitingCount="1" stopTime="0.00" timeLoss="14.00" rerouteNo="0" devices="tripinfo_a2i.2" vType="car@a2i.2" speedFactor="1.09" vaporized=""/>
    <tripinfo id="a3i.5" depart="17.00" departLane="a3i_0" departPos="5.10" departSpeed="0.00" departDelay="1.00" arrival="43.00" arrivalLane="a4o_0" arrivalPos="136.40" arrivalSpeed="14.25" duration="26.00" routeLength="276.73" waitingTime="0.00" waitingCount="0" stopTime="0.00" timeLoss="6.47" rerouteNo="0" devices="tripinfo_a3i.5" vType="car" speedFactor="1.02" vaporized=""/>
    <tripinfo id="a4i.1" depart="8.00" departLane="a4i_0" departPos="5.10" departSpeed="0.00" departDelay="0.00" arrival="44.00" arrivalLane="a3o_2" arrivalPos="136.40" arrivalSpeed="12.02" duration="36.00" routeLength="292.21" waitingTime="2.00" waitingCount="1" stopTime="0.00" timeLoss="13.33" rerouteNo="0" devices="tripinfo_a4i.1" vType="car@a4i.1" speedFactor="0.86" vaporized=""/>
    <tripinfo id="a1i.1" depart="5.00" departLane="a1i_0" departPos="5.10" departSpeed="0.00" departDelay="0.00" arrival="45.00" arrivalLane="a4o_2" arrivalPos="136.40" arrivalSpeed="14.25" duration="40.00" routeLength="292.21" waitingTime="12.00" waitingCount="1" stopTime="0.00" timeLoss="20.04" rerouteNo="0" devices="tripinfo_a1i.1" vType="car@a1i.1" speedFactor="1.08" vaporized=""/>
    <tripinfo id="a3i.2" depart="10.00" departLane="a3i_0" departPos="5.10" departSpeed="0.00" departDelay="0.00" arrival="45.00" arrivalLane="a2o_2" arrivalPos="136.40" arrivalSpeed="14.47" duration="35.00" routeLength="292.21" waitingTime="4.00" waitingCount="1" stopTime="0.00" timeLoss="15.00" rerouteNo="0" devices="tripinfo_a3i.2" vType="car@a3i.2" speedFactor="1.05" vaporized=""/>
    <tripinfo id="a4i.5" depart="18.00" departLane="a4i_0" departPos="5.10" departSpeed="0.00" departDelay="0.00" arrival="45.00" arrivalLane="a1o_0" arrivalPos="136.40" arrivalSpeed="11.89" duration="27.00" routeLength="276.73" waitingTime="0.00" waitingCount="0" stopTime="0.00" timeLoss="6.07" rerouteNo="0" devices="tripinfo_a4i.5" vType="car" speedFactor="0.87" vaporized=""/>
    <tripinfo id="a4i.6" depart="21.00" departLane="a4i_0" departPos="5.10" departSpeed="0.00" departDelay="0.00" arrival="47.00" arrivalLane="a1o_0" arrivalPos="136.40" arrivalSpeed="14.34" duration="26.00" routeLength="276.73" waitingTime="0.00" waitingCount="0" stopTime="0.00" timeLoss="6.20" rerouteNo="0" devices="tripinfo_a4i.6" vType="car" speedFactor="1.13" vaporized=""/>
    <tripinfo id="a1i.7" depart="21.00" departLane="a1i_0" departPos="5.10" departSpeed="0.00" departDelay="0.00" arrival="48.00" arrivalLane="a2o_0" arrivalPos="136.40" arrivalSpeed="12.52" duration="27.00" routeLength="276.73" waitingTime="0.00" waitingCount="0" stopTime="0.00" timeLoss="6.42" rerouteNo="0" devices="tripinfo_a1i.7" vType="car" speedFactor="0.92" vaporized=""/>
    <tripinfo id="a1i.3" depart="7.00" departLane="a1i_0" departPos="5.10" departSpeed="0.00" departDelay="0.00" arrival="48.00" arrivalLane="a4o_2" arrivalPos="136.40" arrivalSpeed="13.70" duration="41.00" routeLength="292.21" waitingTime="7.00" waitingCount="1" stopTime="0.00" timeLoss="19.75" rerouteNo="0" devices="tripinfo_a1i.3" vType="car@a1i.3" speedFactor="0.94" vaporized=""/>
    <tripinfo id="a3i.3" depart="12.00" departLane="a3i_0" departPos="5.10" departSpeed="0.00" departDelay="0.00" arrival="49.00" arrivalLane="a2o_2" arrivalPos="136.40" arrivalSpeed="12.98" duration="37.00" routeLength="292.21" waitingTime="1.00" waitingCount="1" stopTime="0.00" timeLoss="14.77" rerouteNo="0" devices="tripinfo_a3i.3" vType="car@a3i.3" speedFactor="0.88" vaporized=""/>
    <tripinfo id="a3i.7" depart="20.00" departLane="a3i_0" departPos="5.10" departSpeed="0.00" departDelay="2.00" arrival="49.00" arrivalLane="a4o_0" arrivalPos="136.40" arrivalSpeed="11.99" duration="29.00" routeLength="276.73" waitingTime="0.00" waitingCount="0" stopTime="0.00" timeLoss="6.99" rerouteNo="0" devices="tripinfo_a3i.7" vType="car" speedFactor="0.83" vaporized=""/>
    <tripinfo id="a1i.8" depart="26.00" departLane="a1i_0" departPos="5.10" departSpeed="0.00" departDelay="0.00" arrival="50.00" arrivalLane="a4o_1" arrivalPos="136.40" arrivalSpeed="14.77" duration="24.00" routeLength="292.21" waitingTime="0.00" waitingCount="0" stopTime="0.00" timeLoss="5.77" rerouteNo="0" devices="tripinfo_a1i.8" vType="car@a1i.8" speedFactor="1.17" vaporized=""/>
    <tripinfo id="a4i.4" depart="17.00" departLane="a4i_0" departPos="5.10" departSpeed="0.00" departDelay="0.00" arrival="50.00" arrivalLane="a2o_1" arrivalPos="136.40" arrivalSpeed="11.92" duration="33.00" routeLength="294.90" waitingTime="1.00" waitingCount="1" stopTime="0.00" timeLoss="11.95" rerouteNo="0" devices="tripinfo_a4i.4" vType="car" speedFactor="0.89" vaporized=""/>
    <tripinfo id="a3i.6" depart="19.00" departLane="a3i_0" departPos="5.10" departSpeed="0.00" departDelay="2.00" arrival="51.00" arrivalLane="a2o_2" arrivalPos="136.40" arrivalSpeed="14.48" duration="32.00" routeLength="292.21" waitingTime="1.00" waitingCount="1" stopTime="0.00" timeLoss="10.39" rerouteNo="0" devices="tripinfo_a3i.6" vType="car@a3i.6" speedFactor="0.98" vaporized=""/>
    <tripinfo id="a2i.6" depart="30.00" departLane="a2i_0" departPos="5.10" departSpeed="0.00" departDelay="0.00" arrival="52.00" arrivalLane="a4o_2" arrivalPos="136.40" arrivalSpeed="14.49" duration="22.00" routeLength="294.90" waitingTime="0.00" waitingCount="0" stopTime="0.00" timeLoss="5.05" rerouteNo="0" devices="tripinfo_a2i.6" vType="car@a2i.6" speedFactor="1.03" vaporized=""/>
    <tripinfo id="a3i.8" depart="24.00" departLane="a3i_0" departPos="5.10" departSpeed="0.00" departDelay="0.00" arrival="52.00" arrivalLane="a2o_2" arrivalPos="136.40" arrivalSpeed="14.72" duration="28.00" routeLength="292.21" waitingTime="0.00" waitingCount="0" stopTime="0.00" timeLoss="7.88" rerouteNo="0" devices="tripinfo_a3i.8" vType="car" speedFactor="1.18" vaporized=""/>
    <tripinfo id="a4i.9" depart="26.00" departLane="a4i_0" departPos="5.10" departSpeed="0.00" departDelay="1.00" arrival="52.00" arrivalLane="a1o_0" arrivalPos="136.40" arrivalSpeed="14.04" duration="26.00" routeLength="276.73" waitingTime="0.00" waitingCount="0" stopTime="0.00" timeLoss="5.96" rerouteNo="0" devices="tripinfo_a4i.9" vType="car" speedFactor="1.01" vaporized=""/>
    <tripinfo id="a3i.10" depart="28.00" departLane="a3i_0" departPos="5.10" departSpeed="0.00" departDelay="0.00" arrival="53.00" arrivalLane="a4o_0" arrivalPos="136.40" arrivalSpeed="13.53" duration="25.00" routeLength="276.73" waitingTime="0.00" waitingCount="0" stopTime="0.00" timeLoss="5.69" rerouteNo="0" devices="tripinfo_a3i.10" vType="car" speedFactor="0.97" vaporized=""/>
    <tripinfo id="a1i.5" depart="11.00" departLane="a1i_0" departPos="5.10" departSpeed="0.00" departDelay="0.00" arrival="55.00" arrivalLane="a4o_2" arrivalPos="136.40" arrivalSpeed="14.26" duration="44.00" routeLength="292.21" waitingTime="8.00" waitingCount="2" stopTime="0.00" timeLoss="22.46" rerouteNo="0" devices="tripinfo_a1i.5" vType="car@a1i.5" speedFactor="1.12" vaporized=""/>
    <tripinfo id="a3i.11" depart="30.00" departLane="a3i_0" departPos="5.10" departSpeed="0.00" departDelay="1.00" arrival="55.00" arrivalLane="a4o_0" arrivalPos="136.40" arrivalSpeed="13.71" duration="25.00" routeLength="276.73" waitingTime="0.00" waitingCount="0" stopTime="0.00" timeLoss="5.96" rerouteNo="0" devices="tripinfo_a3i.11" vType="car" speedFactor="1.18" vaporized=""/>
    <tripinfo id="a1i.9" depart="30.00" departLane="a1i_0" departPos="5.10" departSpeed="0.00" departDelay="0.00" arrival="57.00" arrivalLane="a4o_2" arrivalPos="136.40" arrivalSpeed="12.60" duration="27.00" routeLength="292.21" waitingTime="0.00" waitingCount="0" stopTime="0.00" timeLoss="5.11" rerouteNo="0" devices="tripinfo_a1i.9" vType="car" speedFactor="0.90" vaporized=""/>
    <tripinfo id="a4i.12" depart="32.00" departLane="a4i_0" departPos="5.10" departSpeed="0.00" departDelay="1.00" arrival="57.00" arrivalLane="a1o_0" arrivalPos="136.40" arrivalSpeed="14.62" duration="25.00" routeLength="276.73" waitingTime="0.00" waitingCount="0" stopTime="0.00" timeLoss="5.12" rerouteNo="0" devices="tripinfo_a4i.12" vType="car" speedFactor="1.04" vaporized=""/>
    <tripinfo id="a4i.13" depart="35.00" departLane="a4i_0" departPos="5.10" departSpeed="0.00" departDelay="2.00" arrival="58.00" arrivalLane="a3o_0" arrivalPos="136.40" arrivalSpeed="14.90" duration="23.00" routeLength="292.21" waitingTime="0.00" waitingCount="0" stopTime="0.00" timeLoss="5.16" rerouteNo="0" devices="tripinfo_a4i.13" vType="car@a4i.13" speedFactor="1.00" vaporized=""/>
    <tripinfo id="a2i.4" depart="17.00" departLane="a2i_0" departPos="5.10" departSpeed="0.00" departDelay="0.00" arrival="58.00" arrivalLane="a4o_1" arrivalPos="136.40" arrivalSpeed="14.01" duration="41.00" routeLength="294.90" waitingTime="8.00" waitingCount="1" stopTime="0.00" timeLoss="20.99" rerouteNo="0" devices="tripinfo_a2i.4" vType="car@a2i.4" speedFactor="1.01" vaporized=""/>
    <tripinfo id="a3i.12" depart="32.00" departLane="a3i_0" departPos="5.10" departSpeed="0.00" departDelay="2.00" arrival="59.00" arrivalLane="a4o_0" arrivalPos="136.40" arrivalSpeed="12.86" duration="27.00" routeLength="276.73" waitingTime="0.00" waitingCount="0" stopTime="0.00" timeLoss="7.54" rerouteNo="0" devices="tripinfo_a3i.12" vType="car" speedFactor="0.96" vaporized=""/>
    <tripinfo id="a2i.5" depart="21.00" departLane="a2i_0" departPos="5.10" departSpeed="0.00" departDelay="0.00" arrival="61.00" arrivalLane="a4o_1" arrivalPos="136.40" arrivalSpeed="13.82" duration="40.00" routeLength="294.90" waitingTime="6.00" waitingCount="1" stopTime="0.00" timeLoss="19.65" rerouteNo="0" devices="tripinfo_a2i.5" vType="car@a2i.5" speedFactor="0.95" vaporized=""/>
    <tripinfo id="a2i.8" depart="37.00" departLane="a2i_0" departPos="5.10" departSpeed="0.00" departDelay="0.00" arrival="62.00" arrivalLane="a3o_0" arrivalPos="136.40" arrivalSpeed="14.26" duration="25.00" routeLength="276.73" waitingTime="0.00" waitingCount="0" stopTime="0.00" timeLoss="5.17" rerouteNo="0" devices="tripinfo_a2i.8" vType="car" speedFactor="1.17" vaporized=""/>
    <tripinfo id="a3i.13" depart="35.00" departLane="a3i_0" departPos="5.10" departSpeed="0.00" departDelay="4.00" arrival="62.00" arrivalLane="a4o_0" arrivalPos="136.40" arrivalSpeed="14.66" duration="27.00" routeLength="276.73" waitingTime="0.00" waitingCount="0" stopTime="0.00" timeLoss="7.22" rerouteNo="0" devices="tripinfo_a3i.13" vType="car" speedFactor="1.09" vaporized=""/>
    <tripinfo id="a4i.15" depart="38.00" departLane="a4i_0" departPos="5.10" departSpeed="0.00" departDelay="0.00" arrival="63.00" arrivalLane="a2o_1" arrivalPos="136.40" arrivalSpeed="14.50" duration="25.00" routeLength="294.90" waitingTime="0.00" waitingCount="0" stopTime="0.00" timeLoss="7.00" rerouteNo="0" devices="tripinfo_a4i.15" vType="car@a4i.15" speedFactor="1.00" vaporized=""/>
    <tripinfo id="a1i.4" depart="10.00" departLane="a1i_0" departPos="5.10" departSpeed="0.00" departDelay="0.00" arrival="63.00" arrivalLane="a3o_1" arrivalPos="136.40" arrivalSpeed="14.71" duration="53.00" routeLength="294.90" waitingTime="21.00" waitingCount="1" stopTime="0.00" timeLoss="33.21" rerouteNo="0" devices="tripinfo_a1i.4" vType="car@a1i.4" speedFactor="1.03" vaporized=""/>
    <tripinfo id="a4i.7" depart="24.00" departLane="a4i_0" departPos="5.10" departSpeed="0.00" departDelay="1.00" arrival="63.00" arrivalLane="a3o_2" arrivalPos="136.40" arrivalSpeed="13.32" duration="39.00" routeLength="292.21" waitingTime="6.00" waitingCount="1" stopTime="0.00" timeLoss="17.62" rerouteNo="0" devices="tripinfo_a4i.7" vType="car@a4i.7" speedFactor="0.93" vaporized=""/>
    <tripinfo id="a1i.12" depart="38.00" departLane="a1i_0" departPos="5.10" departSpeed="0.00" departDelay="0.00" arrival="63.00" arrivalLane="a2o_0" arrivalPos="136.40" arrivalSpeed="14.17" duration="25.00" routeLength="276.73" waitingTime="0.00" waitingCount="0" stopTime="0.00" timeLoss="5.33" rerouteNo="0" devices="tripinfo_a1i.12" vType="car" speedFactor="1.10" vaporized=""/>
    <tripinfo id="a3i.14" depart="38.00" departLane="a3i_0" departPos="5.10" departSpeed="0.00" departDelay="6.00" arrival="64.00" arrivalLane="a4o_0" arrivalPos="136.40" arrivalSpeed="14.19" duration="26.00" routeLength="276.73" waitingTime="0.00" waitingCount="0" stopTime="0.00" timeLoss="6.56" rerouteNo="0" devices="tripinfo_a3i.14" vType="car" speedFactor="1.04" vaporized=""/>
    <tripinfo id="a4i.11" depart="30.00" departLane="a4i_0" departPos="5.10" departSpeed="0.00" departDelay="1.00" arrival="65.00" arrivalLane="a3o_2" arrivalPos="136.40" arrivalSpeed="14.17" duration="35.00" routeLength="292.21" waitingTime="2.00" waitingCount="2" stopTime="0.00" timeLoss="14.25" rerouteNo="0" devices="tripinfo_a4i.11" vType="car@a4i.11" speedFactor="1.10" vaporized=""/>
    <tripinfo id="a4i.8" depart="25.00" departLane="a4i_0" departPos="5.10" departSpeed="0.00" departDelay="1.00" arrival="67.00" arrivalLane="a2o_1" arrivalPos="136.40" arrivalSpeed="14.88" duration="42.00" routeLength="294.90" waitingTime="12.00" waitingCount="1" stopTime="0.00" timeLoss="22.09" rerouteNo="0" devices="tripinfo_a4i.8" vType="car@a4i.8" speedFactor="1.15" vaporized=""/>
    <tripinfo id="a1i.6" depart="13.00" departLane="a1i_0" departPos="5.10" departSpeed="0.00" departDelay="1.00" arrival="67.00" arrivalLane="a3o_1" arrivalPos="136.40" arrivalSpeed="13.42" duration="54.00" routeLength="294.90" waitingTime="19.00" waitingCount="1" stopTime="0.00" timeLoss="32.92" rerouteNo="0" devices="tripinfo_a1i.6" vType="car@a1i.6" speedFactor="0.93" vaporized=""/>
    <tripinfo id="a4i.14" depart="36.00" departLane="a4i_0" departPos="5.10" departSpeed="0.00" departDelay="2.00" arrival="67.00" arrivalLane="a3o_2" arrivalPos="136.40" arrivalSpeed="13.16" duration="31.00" routeLength="292.21" waitingTime="1.00" waitingCount="1" stopTime="0.00" timeLoss="9.13" rerouteNo="0" devices="tripinfo_a4i.14" vType="car@a4i.14" speedFactor="0.90" vaporized=""/>
    <tripinfo id="a1i.15" depart="43.00" departLane="a1i_0" departPos="5.10" departSpeed="0.00" departDelay="1.00" arrival="68.00" arrivalLane="a2o_0" arrivalPos="136.40" arrivalSpeed="13.64" duration="25.00" routeLength="276.73" waitingTime="0.00" waitingCount="0" stopTime="0.00" timeLoss="5.34" rerouteNo="0" devices="tripinfo_a1i.15" vType="car" speedFactor="1.02" vaporized=""/>
    <tripinfo id="a1i.13" depart="41.00" departLane="a1i_0" departPos="5.10" departSpeed="0.00" departDelay="2.00" arrival="69.00" arrivalLane="a4o_2" arrivalPos="136.40" arrivalSpeed="8.00" duration="28.00" routeLength="292.21" waitingTime="8.00" waitingCount="1" stopTime="0.00" timeLoss="16.14" rerouteNo="0" devices="tripinfo_a1i.13" vType="car@a1i.13" speedFactor="0.90" vaporized=""/>
    <tripinfo id="a4i.16" depart="43.00" departLane="a4i_0" departPos="5.10" departSpeed="0.00" departDelay="0.00" arrival="70.00" arrivalLane="a1o_0" arrivalPos="136.40" arrivalSpeed="13.50" duration="27.00" routeLength="276.73" waitingTime="0.00" waitingCount="0" stopTime="0.00" timeLoss="5.54" rerouteNo="0" devices="tripinfo_a4i.16" vType="car" speedFactor="0.91" vaporized=""/>
    <tripinfo id="a4i.10" depart="29.00" departLane="a4i_0" departPos="5.10" departSpeed="0.00" departDelay="3.00" arrival="70.00" arrivalLane="a2o_1" arrivalPos="136.40" arrivalSpeed="13.96" duration="41.00" routeLength="294.90" waitingTime="8.00" waitingCount="1" stopTime="0.00" timeLoss="20.95" rerouteNo="0" devices="tripinfo_a4i.10" vType="car@a4i.10" speedFactor="0.99" vaporized=""/>
    <tripinfo id="a1i.16" depart="45.00" departLane="a1i_0" departPos="5.10" departSpeed="0.00" departDelay="2.00" arrival="71.00" arrivalLane="a2o_0" arrivalPos="136.40" arrivalSpeed="13.07" duration="26.00" routeLength="276.73" waitingTime="0.00" waitingCount="0" stopTime="0.00" timeLoss="6.28" rerouteNo="0" devices="tripinfo_a1i.16" vType="car" speedFactor="0.94" vaporized=""/>
    <tripinfo id="a2i.12" depart="46.00" departLane="a2i_0" departPos="5.10" departSpeed="0.00" departDelay="0.00" arrival="72.00" arrivalLane="a4o_1" arrivalPos="136.40" arrivalSpeed="13.11" duration="26.00" routeLength="294.90" waitingTime="0.00" waitingCount="0" stopTime="0.00" timeLoss="7.23" rerouteNo="0" devices="tripinfo_a2i.12" vType="car@a2i.12" speedFactor="0.94" vaporized=""/>
    <tripinfo id="a4i.19" depart="48.00" departLane="a4i_0" departPos="5.10" departSpeed="0.00" departDelay="2.00" arrival="73.00" arrivalLane="a1o_0" arrivalPos="136.40" arrivalSpeed="13.56" duration="25.00" routeLength="276.73" waitingTime="0.00" waitingCount="0" stopTime="0.00" timeLoss="5.29" rerouteNo="0" devices="tripinfo_a4i.19" vType="car" speedFactor="1.06" vaporized=""/>
    <tripinfo id="a2i.14" depart="49.00" departLane="a2i_0" departPos="5.10" departSpeed="0.00" departDelay="1.00" arrival="74.00" arrivalLane="a3o_0" arrivalPos="136.40" arrivalSpeed="14.01" duration="25.00" routeLength="276.73" waitingTime="0.00" waitingCount="0" stopTime="0.00" timeLoss="5.42" rerouteNo="0" devices="tripinfo_a2i.14" vType="car" speedFactor="0.98" vaporized=""/>
    <tripinfo id="a1i.17" depart="48.00" departLane="a1i_0" departPos="5.10" departSpeed="0.00" departDelay="4.00" arrival="74.00" arrivalLane="a2o_0" arrivalPos="136.40" arrivalSpeed="13.54" duration="26.00" routeLength="276.73" waitingTime="0.00" waitingCount="0" stopTime="0.00" timeLoss="5.42" rerouteNo="0" devices="tripinfo_a1i.17" vType="car" speedFactor="0.91" vaporized=""/>
    <tripinfo id="a3i.19" depart="48.00" departLane="a3i_0" departPos="5.10" departSpeed="0.00" departDelay="8.00" arrival="74.00" arrivalLane="a4o_0" arrivalPos="136.40" arrivalSpeed="14.27" duration="26.00" routeLength="276.73" waitingTime="0.00" waitingCount="0" stopTime="0.00" timeLoss="5.80" rerouteNo="0" devices="tripinfo_a3i.19" vType="car" speedFactor="0.97" vaporized=""/>
    <tripinfo id="a3i.20" depart="51.00" departLane="a3i_0" departPos="5.10" departSpeed="0.00" departDelay="9.00" arrival="75.00" arrivalLane="a2o_2" arrivalPos="136.40" arrivalSpeed="14.48" duration="24.00" routeLength="292.21" waitingTime="0.00" waitingCount="0" stopTime="0.00" timeLoss="5.70" rerouteNo="0" devices="tripinfo_a3i.20" vType="car@a3i.20" speedFactor="0.99" vaporized=""/>
    <tripinfo id="a2i.10" depart="41.00" departLane="a2i_0" departPos="5.10" departSpeed="0.00" departDelay="0.00" arrival="75.00" arrivalLane="a4o_1" arrivalPos="136.40" arrivalSpeed="14.31" duration="34.00" routeLength="294.90" waitingTime="3.00" waitingCount="1" stopTime="0.00" timeLoss="14.00" rerouteNo="0" devices="tripinfo_a2i.10" vType="car@a2i.10" speedFactor="1.12" vaporized=""/>
    <tripinfo id="a1i.18" depart="50.00" departLane="a1i_0" departPos="5.10" departSpeed="0.00" departDelay="2.00" arrival="76.00" arrivalLane="a2o_0" arrivalPos="136.40" arrivalSpeed="14.04" duration="26.00" routeLength="276.73" waitingTime="0.00" waitingCount="0" stopTime="0.00" timeLoss="6.28" rerouteNo="0" devices="tripinfo_a1i.18" vType="car" speedFactor="1.03" vaporized=""/>
    <tripinfo id="a1i.10" depart="33.00" departLane="a1i_0" departPos="5.10" departSpeed="0.00" departDelay="0.00" arrival="77.00" arrivalLane="a4o_2" arrivalPos="136.40" arrivalSpeed="14.09" duration="44.00" routeLength="292.21" waitingTime="17.00" waitingCount="1" stopTime="0.00" timeLoss="24.06" rerouteNo="0" devices="tripinfo_a1i.10" vType="car@a1i.10" speedFactor="1.09" vaporized=""/>
    <tripinfo id="a2i.15" depart="52.00" departLane="a2i_0" departPos="5.10" departSpeed="0.00" departDelay="2.00" arrival="77.00" arrivalLane="a3o_0" arrivalPos="136.40" arrivalSpeed="14.27" duration="25.00" routeLength="276.73" waitingTime="0.00" waitingCount="0" stopTime="0.00" timeLoss="5.09" rerouteNo="0" devices="tripinfo_a2i.15" vType="car" speedFactor="1.03" vaporized=""/>
    <tripinfo id="a3i.22" depart="53.00" departLane="a3i_0" departPos="5.10" departSpeed="0.00" departDelay="9.00" arrival="78.00" arrivalLane="a4o_0" arrivalPos="136.40" arrivalSpeed="13.95" duration="25.00" routeLength="276.73" waitingTime="0.00" waitingCount="0" stopTime="0.00" timeLoss="5.57" rerouteNo="0" devices="tripinfo_a3i.22" vType="car" speedFactor="1.02" vaporized=""/>
    <tripinfo id="a3i.18" depart="46.00" departLane="a3i_0" departPos="5.10" departSpeed="0.00" departDelay="7.00" arrival="79.00" arrivalLane="a2o_2" arrivalPos="136.40" arrivalSpeed="14.50" duration="33.00" routeLength="292.21" waitingTime="1.00" waitingCount="1" stopTime="0.00" timeLoss="12.94" rerouteNo="0" devices="tripinfo_a3i.18" vType="car@a3i.18" speedFactor="1.02" vaporized=""/>
    <tripinfo id="a4i.20" depart="53.00" departLane="a4i_0" departPos="5.10" departSpeed="0.00" departDelay="0.00" arrival="79.00" arrivalLane="a1o_0" arrivalPos="136.40" arrivalSpeed="13.80" duration="26.00" routeLength="276.73" waitingTime="0.00" waitingCount="0" stopTime="0.00" timeLoss="5.79" rerouteNo="0" devices="tripinfo_a4i.20" vType="car" speedFactor="1.02" vaporized=""/>
    <tripinfo id="a1i.11" depart="37.00" departLane="a1i_0" departPos="5.10" departSpeed="0.00" departDelay="0.00" arrival="81.00" arrivalLane="a4o_2" arrivalPos="136.40" arrivalSpeed="12.19" duration="44.00" routeLength="292.21" waitingTime="11.00" waitingCount="1" stopTime="0.00" timeLoss="21.27" rerouteNo="0" devices="tripinfo_a1i.11" vType="car@a1i.11" speedFactor="0.85" vaporized=""/>
    <tripinfo id="a1i.21" depart="56.00" departLane="a1i_0" departPos="5.10" departSpeed="0.00" departDelay="0.00" arrival="81.00" arrivalLane="a2o_0" arrivalPos="136.40" arrivalSpeed="14.66" duration="25.00" routeLength="276.73" waitingTime="0.00" waitingCount="0" stopTime="0.00" timeLoss="5.29" rerouteNo="0" devices="tripinfo_a1i.21" vType="car" speedFactor="1.15" vaporized=""/>
    <tripinfo id="a3i.24" depart="56.00" departLane="a3i_0" departPos="5.10" departSpeed="0.00" departDelay="3.00" arrival="82.00" arrivalLane="a1o_1" arrivalPos="136.40" arrivalSpeed="14.90" duration="26.00" routeLength="294.90" waitingTime="1.00" waitingCount="1" stopTime="0.00" timeLoss="9.73" rerouteNo="0" devices="tripinfo_a3i.24" vType="car@a3i.24" speedFactor="1.00" vaporized=""/>
    <tripinfo id="a4i.21" depart="56.00" departLane="a4i_0" departPos="5.10" departSpeed="0.00" departDelay="1.00" arrival="82.00" arrivalLane="a1o_0" arrivalPos="136.40" arrivalSpeed="13.25" duration="26.00" routeLength="276.73" waitingTime="0.00" waitingCount="0" stopTime="0.00" timeLoss="6.17" rerouteNo="0" devices="tripinfo_a4i.21" vType="car" speedFactor="0.97" vaporized=""/>
    <tripinfo id="a3i.25" depart="58.00" departLane="a3i_0" departPos="5.10" departSpeed="0.00" departDelay="2.00" arrival="83.00" arrivalLane="a4o_0" arrivalPos="136.40" arrivalSpeed="14.20" duration="25.00" routeLength="276.73" waitingTime="0.00" waitingCount="0" stopTime="0.00" timeLoss="5.19" rerouteNo="0" devices="tripinfo_a3i.25" vType="car" speedFactor="0.98" vaporized=""/>
    <tripinfo id="a1i.14" depart="42.00" departLane="a1i_0" departPos="5.10" departSpeed="0.00" departDelay="1.00" arrival="85.00" arrivalLane="a3o_1" arrivalPos="136.40" arrivalSpeed="14.58" duration="43.00" routeLength="294.90" waitingTime="8.00" waitingCount="1" stopTime="0.00" timeLoss="22.84" rerouteNo="0" devices="tripinfo_a1i.14" vType="car@a1i.14" speedFactor="1.08" vaporized=""/>
    <tripinfo id="a4i.22" depart="59.00" departLane="a4i_0" departPos="5.10" departSpeed="0.00" departDelay="3.00" arrival="85.00" arrivalLane="a1o_0" arrivalPos="136.40" arrivalSpeed="13.92" duration="26.00" routeLength="276.73" waitingTime="0.00" waitingCount="0" stopTime="0.00" timeLoss="6.21" rerouteNo="0" devices="tripinfo_a4i.22" vType="car" speedFactor="1.00" vaporized=""/>
    <tripinfo id="a3i.23" depart="55.00" departLane="a3i_0" departPos="5.10" departSpeed="0.00" departDelay="8.00" arrival="85.00" arrivalLane="a1o_1" arrivalPos="136.40" arrivalSpeed="8.00" duration="30.00" routeLength="294.90" waitingTime="4.00" waitingCount="1" stopTime="0.00" timeLoss="19.17" rerouteNo="0" devices="tripinfo_a3i.23" vType="car@a3i.23" speedFactor="0.98" vaporized=""/>
    <tripinfo id="a3i.9" depart="27.00" departLane="a3i_0" departPos="5.10" departSpeed="0.00" departDelay="0.00" arrival="86.00" arrivalLane="a1o_1" arrivalPos="136.40" arrivalSpeed="14.13" duration="59.00" routeLength="294.90" waitingTime="23.00" waitingCount="1" stopTime="0.00" timeLoss="38.98" rerouteNo="0" devices="tripinfo_a3i.9" vType="car@a3i.9" speedFactor="1.02" vaporized=""/>