<?xml version="1.0" encoding="UTF-8"?>

<!-- generated on 06/13/19 21:02:06 by Eclipse SUMO GUI Version 1.2.0
<configuration xmlns:xsi="http://www.w3.org/2001/XMLSchema-instance" xsi:noNamespaceSchemaLocation="http://sumo.dlr.de/xsd/sumoConfiguration.xsd">

    <input>
        <net-file value="../cfg/intersection.net.xml"/>
        <route-files value="../cfg/intersectiontest.rou.xml"/>
    </input>

    <output>
        <queue-output value="../output/queue.xml"/>
        <tripinfo-output value="../output/tripinfo.xml"/>
    </output>

    <time>
        <begin value="0"/>
        <end value="3600"/>
    </time>

    <processing>
        <collision.mingap-factor value="0"/>
        <time-to-teleport value="100"/>
    </processing>

    <traci_server>
        <remote-port value="51500"/>
    </traci_server>

</configuration>
-->

<tripinfos xmlns:xsi="http://www.w3.org/2001/XMLSchema-instance" xsi:noNamespaceSchemaLocation="http://sumo.dlr.de/xsd/tripinfo_file.xsd">
    <tripinfo id="d3i.0" depart="1.00" departLane="d3i_0" departPos="5.10" departSpeed="0.00" departDelay="0.00" arrival="27.00" arrivalLane="d4o_0" arrivalPos="138.65" arrivalSpeed="11.05" duration="26.00" routeLength="277.20" waitingTime="0.00" waitingCount="0" stopTime="0.00" timeLoss="6.39" rerouteNo="0" devices="tripinfo_d3i.0" vType="car" speedFactor="1.05" vaporized=""/>
    <tripinfo id="a4i.0" depart="0.00" departLane="a4i_0" departPos="5.10" departSpeed="0.00" departDelay="0.00" arrival="28.00" arrivalLane="a1o_0" arrivalPos="138.65" arrivalSpeed="9.56" duration="28.00" routeLength="277.20" waitingTime="0.00" waitingCount="0" stopTime="0.00" timeLoss="6.24" rerouteNo="0" devices="tripinfo_a4i.0" vType="car" speedFactor="0.94" vaporized=""/>
    <tripinfo id="b1i.1" depart="4.00" departLane="b1i_0" departPos="5.10" departSpeed="0.00" departDelay="0.00" arrival="29.00" arrivalLane="b2o_0" arrivalPos="138.65" arrivalSpeed="11.80" duration="25.00" routeLength="277.20" waitingTime="0.00" waitingCount="0" stopTime="0.00" timeLoss="6.50" rerouteNo="0" devices="tripinfo_b1i.1" vType="car" speedFactor="1.12" vaporized=""/>
    <tripinfo id="c2i.0" depart="1.00" departLane="c2i_0" departPos="5.10" departSpeed="0.00" departDelay="0.00" arrival="31.00" arrivalLane="c3o_0" arrivalPos="138.65" arrivalSpeed="8.48" duration="30.00" routeLength="277.20" waitingTime="0.00" waitingCount="0" stopTime="0.00" timeLoss="6.01" rerouteNo="0" devices="tripinfo_c2i.0" vType="car" speedFactor="0.83" vaporized=""/>
    <tripinfo id="d3i.1" depart="4.00" departLane="d3i_0" departPos="5.10" departSpeed="0.00" departDelay="1.00" arrival="31.00" arrivalLane="d4o_0" arrivalPos="138.65" arrivalSpeed="10.73" duration="27.00" routeLength="277.20" waitingTime="0.00" waitingCount="0" stopTime="0.00" timeLoss="6.80" rerouteNo="0" devices="tripinfo_d3i.1" vType="car" speedFactor="1.03" vaporized=""/>
    <tripinfo id="b1i.2" depart="7.00" departLane="b1i_0" departPos="5.10" departSpeed="0.00" departDelay="1.00" arrival="34.00" arrivalLane="b2o_0" arrivalPos="138.65" arrivalSpeed="10.58" duration="27.00" routeLength="277.20" waitingTime="0.00" waitingCount="0" stopTime="0.00" timeLoss="6.57" rerouteNo="0" devices="tripinfo_b1i.2" vType="car" speedFactor="1.02" vaporized=""/>
    <tripinfo id="a4i.4" depart="9.00" departLane="a4i_0" departPos="5.10" departSpeed="0.00" departDelay="0.00" arrival="34.00" arrivalLane="a1o_0" arrivalPos="138.65" arrivalSpeed="12.32" duration="25.00" routeLength="277.20" waitingTime="0.00" waitingCount="0" stopTime="0.00" timeLoss="6.46" rerouteNo="0" devices="tripinfo_a4i.4" vType="car" speedFactor="1.15" vaporized=""/>
    <tripinfo id="d3i.3" depart="8.00" departLane="d3i_0" departPos="5.10" departSpeed="0.00" departDelay="3.00" arrival="36.00" arrivalLane="d4o_0" arrivalPos="138.65" arrivalSpeed="9.88" duration="28.00" routeLength="277.20" waitingTime="0.00" waitingCount="0" stopTime="0.00" timeLoss="6.67" rerouteNo="0" devices="tripinfo_d3i.3" vType="car" speedFactor="0.94" vaporized=""/>
    <tripinfo id="d3i.5" depart="12.00" departLane="d3i_0" departPos="5.10" departSpeed="0.00" departDelay="4.00" arrival="38.00" arrivalLane="d4o_0" arrivalPos="138.65" arrivalSpeed="12.67" duration="26.00" routeLength="277.20" waitingTime="0.00" waitingCount="0" stopTime="0.00" timeLoss="7.84" rerouteNo="0" devices="tripinfo_d3i.5" vType="car" speedFactor="1.18" vaporized=""/>
    <tripinfo id="b1i.4" depart="11.00" departLane="b1i_0" departPos="5.10" departSpeed="0.00" departDelay="0.00" arrival="39.00" arrivalLane="b2o_0" arrivalPos="138.65" arrivalSpeed="10.48" duration="28.00" routeLength="277.20" waitingTime="0.00" waitingCount="0" stopTime="0.00" timeLoss="6.79" rerouteNo="0" devices="tripinfo_b1i.4" vType="car" speedFactor="0.97" vaporized=""/>
    <tripinfo id="a4i.7" depart="16.00" departLane="a4i_0" departPos="5.10" departSpeed="0.00" departDelay="3.00" arrival="43.00" arrivalLane="a1o_0" arrivalPos="138.65" arrivalSpeed="10.25" duration="27.00" routeLength="277.20" waitingTime="0.00" waitingCount="0" stopTime="0.00" timeLoss="6.47" rerouteNo="0" devices="tripinfo_a4i.7" vType="car" speedFactor="1.00" vaporized=""/>
    <tripinfo id="b1i.5" depart="14.00" departLane="b1i_0" departPos="5.10" departSpeed="0.00" departDelay="1.00" arrival="43.00" arrivalLane="b2o_0" arrivalPos="138.65" arrivalSpeed="9.54" duration="29.00" routeLength="277.20" waitingTime="0.00" waitingCount="0" stopTime="0.00" timeLoss="6.76" rerouteNo="0" devices="tripinfo_b1i.5" vType="car" speedFactor="0.90" vaporized=""/>
    <tripinfo id="c2i.7" depart="17.00" departLane="c2i_0" departPos="5.10" departSpeed="0.00" departDelay="0.00" arrival="43.00" arrivalLane="c3o_0" arrivalPos="138.65" arrivalSpeed="12.23" duration="26.00" routeLength="277.20" waitingTime="0.00" waitingCount="0" stopTime="0.00" timeLoss="6.97" rerouteNo="0" devices="tripinfo_c2i.7" vType="car" speedFactor="1.12" vaporized=""/>
    <tripinfo id="d3i.6" depart="15.00" departLane="d3i_0" departPos="5.10" departSpeed="0.00" departDelay="4.00" arrival="44.00" arrivalLane="d4o_0" arrivalPos="138.65" arrivalSpeed="9.03" duration="29.00" routeLength="277.20" waitingTime="0.00" waitingCount="0" stopTime="0.00" timeLoss="6.37" rerouteNo="0" devices="tripinfo_d3i.6" vType="car" speedFactor="0.90" vaporized=""/>
    <tripinfo id="b2i.3" depart="12.00" departLane="b2i_0" departPos="5.10" departSpeed="0.00" departDelay="4.00" arrival="45.00" arrivalLane="b1o_2" arrivalPos="138.65" arrivalSpeed="12.16" duration="33.00" routeLength="293.16" waitingTime="1.00" waitingCount="1" stopTime="0.00" timeLoss="13.91" rerouteNo="0" devices="tripinfo_b2i.3" vType="car" speedFactor="1.13" vaporized=""/>
    <tripinfo id="c3i.7" depart="18.00" departLane="c3i_0" departPos="5.10" departSpeed="0.00" departDelay="1.00" arrival="44.00" arrivalLane="c2o_2" arrivalPos="138.65" arrivalSpeed="8.00" duration="26.00" routeLength="293.16" waitingTime="4.00" waitingCount="1" stopTime="0.00" timeLoss="17.52" rerouteNo="0" devices="tripinfo_c3i.7" vType="car@c3i.7" speedFactor="1.02" vaporized=""/>
    <tripinfo id="c3i.6" depart="16.00" departLane="c3i_0" departPos="5.10" departSpeed="0.00" departDelay="1.00" arrival="45.00" arrivalLane="c2o_2" arrivalPos="138.65" arrivalSpeed="8.00" duration="29.00" routeLength="293.16" waitingTime="2.00" waitingCount="2" stopTime="0.00" timeLoss="20.16" rerouteNo="0" devices="tripinfo_c3i.6" vType="car@c3i.6" speedFactor="1.00" vaporized=""/>
    <tripinfo id="d3i.9" depart="23.00" departLane="d3i_0" departPos="5.10" departSpeed="0.00" departDelay="9.00" arrival="48.00" arrivalLane="d4o_0" arrivalPos="138.65" arrivalSpeed="11.90" duration="25.00" routeLength="277.20" waitingTime="0.00" waitingCount="0" stopTime="0.00" timeLoss="6.43" rerouteNo="0" devices="tripinfo_d3i.9" vType="car" speedFactor="1.10" vaporized=""/>
    <tripinfo id="d4i.7" depart="19.00" departLane="d4i_0" departPos="5.10" departSpeed="0.00" departDelay="1.00" arrival="48.00" arrivalLane="d3o_0" arrivalPos="138.65" arrivalSpeed="11.37" duration="29.00" routeLength="293.16" waitingTime="0.00" waitingCount="0" stopTime="0.00" timeLoss="9.64" rerouteNo="0" devices="tripinfo_d4i.7" vType="car@d4i.7" speedFactor="1.04" vaporized=""/>
    <tripinfo id="a1i.7" depart="19.00" departLane="a1i_0" departPos="5.10" departSpeed="0.00" departDelay="0.00" arrival="48.00" arrivalLane="a4o_0" arrivalPos="138.65" arrivalSpeed="10.62" duration="29.00" routeLength="293.16" waitingTime="0.00" waitingCount="0" stopTime="0.00" timeLoss="9.38" rerouteNo="0" devices="tripinfo_a1i.7" vType="car@a1i.7" speedFactor="1.02" vaporized=""/>
    <tripinfo id="a1i.2" depart="4.00" departLane="a1i_0" departPos="5.10" departSpeed="0.00" departDelay="1.00" arrival="50.00" arrivalLane="a4o_2" arrivalPos="138.65" arrivalSpeed="9.62" duration="46.00" routeLength="293.16" waitingTime="6.00" waitingCount="2" stopTime="0.00" timeLoss="23.17" rerouteNo="0" devices="tripinfo_a1i.2" vType="car@a1i.2" speedFactor="0.94" vaporized=""/>
    <tripinfo id="b1i.8" depart="22.00" departLane="b1i_0" departPos="5.10" departSpeed="0.00" departDelay="3.00" arrival="50.00" arrivalLane="b2o_0" arrivalPos="138.65" arrivalSpeed="11.08" duration="28.00" routeLength="277.20" waitingTime="0.00" waitingCount="0" stopTime="0.00" timeLoss="7.99" rerouteNo="0" devices="tripinfo_b1i.8" vType="car" speedFactor="1.02" vaporized=""/>
    <tripinfo id="a1i.3" depart="8.00" departLane="a1i_0" departPos="5.10" departSpeed="0.00" departDelay="0.00" arrival="52.00" arrivalLane="a4o_2" arrivalPos="138.65" arrivalSpeed="10.29" duration="44.00" routeLength="293.16" waitingTime="3.00" waitingCount="1" stopTime="0.00" timeLoss="21.25" rerouteNo="0" devices="tripinfo_a1i.3" vType="car@a1i.3" speedFactor="0.95" vaporized=""/>
    <tripinfo id="d4i.5" depart="17.00" departLane="d4i_0" departPos="5.10" departSpeed="0.00" departDelay="2.00" arrival="52.00" arrivalLane="d3o_2" arrivalPos="138.65" arrivalSpeed="9.66" duration="35.00" routeLength="293.16" waitingTime="0.00" waitingCount="0" stopTime="0.00" timeLoss="11.05" rerouteNo="0" devices="tripinfo_d4i.5" vType="car@d4i.5" speedFactor="0.90" vaporized=""/>
    <tripinfo id="c3i.8" depart="19.00" departLane="c3i_0" departPos="5.10" departSpeed="0.00" departDelay="1.00" arrival="53.00" arrivalLane="c2o_0" arrivalPos="138.65" arrivalSpeed="9.89" duration="34.00" routeLength="293.16" waitingTime="0.00" waitingCount="0" stopTime="0.00" timeLoss="14.56" rerouteNo="0" devices="tripinfo_c3i.8" vType="car@c3i.8" speedFactor="0.91" vaporized=""/>
    <tripinfo id="a1i.8" depart="22.00" departLane="a1i_0" departPos="5.10" departSpeed="0.00" departDelay="0.00" arrival="53.00" arrivalLane="a4o_2" arrivalPos="138.65" arrivalSpeed="11.28" duration="31.00" routeLength="293.16" waitingTime="0.00" waitingCount="0" stopTime="0.00" timeLoss="10.45" rerouteNo="0" devices="tripinfo_a1i.8" vType="car" speedFactor="1.02" vaporized=""/>
    <tripinfo id="b2i.8" depart="24.00" departLane="b2i_0" departPos="5.10" departSpeed="0.00" departDelay="2.00" arrival="53.00" arrivalLane="b1o_2" arrivalPos="138.65" arrivalSpeed="12.36" duration="29.00" routeLength="293.16" waitingTime="0.00" waitingCount="0" stopTime="0.00" timeLoss="10.03" rerouteNo="0" devices="tripinfo_b2i.8" vType="car" speedFactor="1.15" vaporized=""/>
    <tripinfo id="b1i.10" depart="27.00" departLane="b1i_0" departPos="5.10" departSpeed="0.00" departDelay="2.00" arrival="54.00" arrivalLane="b2o_0" arrivalPos="138.65" arrivalSpeed="10.27" duration="27.00" routeLength="277.20" waitingTime="0.00" waitingCount="0" stopTime="0.00" timeLoss="7.06" rerouteNo="0" devices="tripinfo_b1i.10" vType="car" speedFactor="1.01" vaporized=""/>
    <tripinfo id="c3i.0" depart="4.00" departLane="c3i_0" departPos="5.10" departSpeed="0.00" departDelay="0.00" arrival="55.00" arrivalLane="c2o_2" arrivalPos="138.65" arrivalSpeed="10.96" duration="51.00" routeLength="293.16" waitingTime="15.00" waitingCount="2" stopTime="0.00" timeLoss="29.76" rerouteNo="0" devices="tripinfo_c3i.0" vType="car@c3i.0" speedFactor="0.99" vaporized=""/>
    <tripinfo id="c2i.11" depart="26.00" departLane="c2i_0" departPos="5.10" departSpeed="0.00" departDelay="2.00" arrival="55.00" arrivalLane="c3o_0" arrivalPos="138.65" arrivalSpeed="9.74" duration="29.00" routeLength="277.20" waitingTime="0.00" waitingCount="0" stopTime="0.00" timeLoss="6.48" rerouteNo="0" devices="tripinfo_c2i.11" vType="car" speedFactor="0.92" vaporized=""/>
    <tripinfo id="d3i.11" depart="27.00" departLane="d3i_0" departPos="5.10" departSpeed="0.00" departDelay="9.00" arrival="56.00" arrivalLane="d4o_0" arrivalPos="138.65" arrivalSpeed="9.64" duration="29.00" routeLength="277.20" waitingTime="0.00" waitingCount="0" stopTime="0.00" timeLoss="7.18" rerouteNo="0" devices="tripinfo_d3i.11" vType="car" speedFactor="0.91" vaporized=""/>
    <tripinfo id="a1i.0" depart="0.00" departLane="a1i_0" departPos="5.10" departSpeed="0.00" departDelay="0.00" arrival="57.00" arrivalLane="b1o_0" arrivalPos="138.65" arrivalSpeed="11.46" duration="57.00" routeLength="759.70" waitingTime="0.00" waitingCount="0" stopTime="0.00" timeLoss="8.67" rerouteNo="0" devices="tripinfo_a1i.0" vType="car" speedFactor="1.06" vaporized=""/>
    <tripinfo id="c3i.2" depart="8.00" departLane="c3i_0" departPos="5.10" departSpeed="0.00" departDelay="0.00" arrival="57.00" arrivalLane="c2o_2" arrivalPos="138.65" arrivalSpeed="10.13" duration="49.00" routeLength="293.16" waitingTime="11.00" waitingCount="1" stopTime="0.00" timeLoss="26.63" rerouteNo="0" devices="tripinfo_c3i.2" vType="car@c3i.2" speedFactor="0.93" vaporized=""/>
    <tripinfo id="a1i.9" depart="23.00" departLane="a1i_0" departPos="5.10" departSpeed="0.00" departDelay="0.00" arrival="58.00" arrivalLane="a4o_1" arrivalPos="138.65" arrivalSpeed="10.21" duration="35.00" routeLength="293.16" waitingTime="1.00" waitingCount="1" stopTime="0.00" timeLoss="15.33" rerouteNo="0" devices="tripinfo_a1i.9" vType="car@a1i.9" speedFactor="1.01" vaporized=""/>
    <tripinfo id="a4i.13" depart="28.00" departLane="a4i_0" departPos="5.10" departSpeed="0.00" departDelay="4.00" arrival="58.00" arrivalLane="a1o_0" arrivalPos="138.65" arrivalSpeed="8.43" duration="30.00" routeLength="277.20" waitingTime="0.00" waitingCount="0" stopTime="0.00" timeLoss="6.07" rerouteNo="0" devices="tripinfo_a4i.13" vType="car" speedFactor="0.83" vaporized=""/>
    <tripinfo id="c3i.3" depart="11.00" departLane="c3i_0" departPos="5.10" departSpeed="0.00" departDelay="0.00" arrival="59.00" arrivalLane="c2o_2" arrivalPos="138.65" arrivalSpeed="11.73" duration="48.00" routeLength="293.16" waitingTime="10.00" waitingCount="1" stopTime="0.00" timeLoss="28.09" rerouteNo="0" devices="tripinfo_c3i.3" vType="car@c3i.3" speedFactor="1.10" vaporized=""/>
    <tripinfo id="b2i.11" depart="29.00" departLane="b2i_0" departPos="5.10" departSpeed="0.00" departDelay="1.00" arrival="59.00" arrivalLane="b1o_2" arrivalPos="138.65" arrivalSpeed="11.04" duration="30.00" routeLength="293.16" waitingTime="0.00" waitingCount="0" stopTime="0.00" timeLoss="9.30" rerouteNo="0" devices="tripinfo_b2i.11" vType="car" speedFactor="1.01" vaporized=""/>
    <tripinfo id="d4i.6" depart="18.00" departLane="d4i_0" departPos="5.10" departSpeed="0.00" departDelay="2.00" arrival="60.00" arrivalLane="d3o_2" arrivalPos="138.65" arrivalSpeed="11.15" duration="42.00" routeLength="293.16" waitingTime="3.00" waitingCount="1" stopTime="0.00" timeLoss="21.53" rerouteNo="0" devices="tripinfo_d4i.6" vType="car@d4i.6" speedFactor="1.02" vaporized=""/>
    <tripinfo id="c2i.15" depart="34.00" departLane="c2i_0" departPos="5.10" departSpeed="0.00" departDelay="2.00" arrival="61.00" arrivalLane="c3o_0" arrivalPos="138.65" arrivalSpeed="11.32" duration="27.00" routeLength="277.20" waitingTime="0.00" waitingCount="0" stopTime="0.00" timeLoss="7.52" rerouteNo="0" devices="tripinfo_c2i.15" vType="car" speedFactor="1.03" vaporized=""/>
    <tripinfo id="a4i.17" depart="36.00" departLane="a4i_0" departPos="5.10" departSpeed="0.00" departDelay="6.00" arrival="62.00" arrivalLane="a1o_0" arrivalPos="138.65" arrivalSpeed="11.98" duration="26.00" routeLength="277.20" waitingTime="0.00" waitingCount="0" stopTime="0.00" timeLoss="7.44" rerouteNo="0" devices="tripinfo_a4i.17" vType="car" speedFactor="1.10" vaporized=""/>
    <tripinfo id="d3i.15" depart="35.00" departLane="d3i_0" departPos="5.10" departSpeed="0.00" departDelay="13.00" arrival="63.00" arrivalLane="d4o_0" arrivalPos="138.65" arrivalSpeed="11.48" duration="28.00" routeLength="277.20" waitingTime="0.00" waitingCount="0" stopTime="0.00" timeLoss="8.03" rerouteNo="0" devices="tripinfo_d3i.15" vType="car" speedFactor="1.04" vaporized=""/>
    <tripinfo id="a1i.10" depart="24.00" departLane="a1i_0" departPos="5.10" departSpeed="0.00" departDelay="0.00" arrival="63.00" arrivalLane="a4o_2" arrivalPos="138.65" arrivalSpeed="9.05" duration="39.00" routeLength="293.16" waitingTime="2.00" waitingCount="1" stopTime="0.00" timeLoss="14.98" rerouteNo="0" devices="tripinfo_a1i.10" vType="car@a1i.10" speedFactor="0.89" vaporized=""/>
    <tripinfo id="c3i.12" depart="28.00" departLane="c3i_0" departPos="5.10" departSpeed="0.00" departDelay="2.00" arrival="63.00" arrivalLane="c2o_2" arrivalPos="138.65" arrivalSpeed="9.75" duration="35.00" routeLength="293.16" waitingTime="0.00" waitingCount="0" stopTime="0.00" timeLoss="10.66" rerouteNo="0" devices="tripinfo_c3i.12" vType="car" speedFactor="0.89" vaporized=""/>
    <tripinfo id="d4i.14" depart="36.00" departLane="d4i_0" departPos="5.10" departSpeed="0.00" departDelay="6.00" arrival="63.00" arrivalLane="d3o_0" arrivalPos="138.65" arrivalSpeed="12.00" duration="27.00" routeLength="293.16" waitingTime="0.00" waitingCount="0" stopTime="0.00" timeLoss="10.37" rerouteNo="0" devices="tripinfo_d4i.14" vType="car@d4i.14" speedFactor="1.15" vaporized=""/>
    <tripinfo id="b2i.14" depart="34.00" departLane="b2i_0" departPos="5.10" departSpeed="0.00" departDelay="1.00" arrival="63.00" arrivalLane="b1o_2" arrivalPos="138.65" arrivalSpeed="10.68" duration="29.00" routeLength="293.16" waitingTime="0.00" waitingCount="0" stopTime="0.00" timeLoss="7.62" rerouteNo="0" devices="tripinfo_b2i.14" vType="car" speedFactor="1.01" vaporized=""/>
    <tripinfo id="c2i.16" depart="37.00" departLane="c2i_0" departPos="5.10" departSpeed="0.00" departDelay="2.00" arrival="63.00" arrivalLane="c3o_0" arrivalPos="138.65" arrivalSpeed="12.17" duration="26.00" routeLength="277.20" waitingTime="0.00" waitingCount="0" stopTime="0.00" timeLoss="8.09" rerouteNo="0" devices="tripinfo_c2i.16" vType="car" speedFactor="1.16" vaporized=""/>
    <tripinfo id="c3i.1" depart="5.00" departLane="c3i_0" departPos="5.10" departSpeed="0.00" departDelay="0.00" arrival="68.00" arrivalLane="d3o_0" arrivalPos="138.65" arrivalSpeed="10.06" duration="63.00" routeLength="759.70" waitingTime="0.00" waitingCount="0" stopTime="0.00" timeLoss="9.53" rerouteNo="0" devices="tripinfo_c3i.1" vType="car" speedFactor="0.94" vaporized=""/>
    <tripinfo id="d4i.11" depart="29.00" departLane="d4i_0" departPos="5.10" departSpeed="0.00" departDelay="4.00" arrival="68.00" arrivalLane="d3o_2" arrivalPos="138.65" arrivalSpeed="11.73" duration="39.00" routeLength="293.16" waitingTime="4.00" waitingCount="1" stopTime="0.00" timeLoss="19.07" rerouteNo="0" devices="tripinfo_d4i.11" vType="car@d4i.11" speedFactor="1.07" vaporized=""/>
    <tripinfo id="c2i.18" depart="42.00" departLane="c2i_0" departPos="5.10" departSpeed="0.00" departDelay="3.00" arrival="71.00" arrivalLane="c3o_0" arrivalPos="138.65" arrivalSpeed="10.02" duration="29.00" routeLength="277.20" waitingTime="0.00" waitingCount="0" stopTime="0.00" timeLoss="6.35" rerouteNo="0" devices="tripinfo_c2i.18" vType="car" speedFactor="0.91" vaporized=""/>
    <tripinfo id="b1i.18" depart="46.00" departLane="b1i_0" departPos="5.10" departSpeed="0.00" departDelay="7.00" arrival="72.00" arrivalLane="b2o_0" arrivalPos="138.65" arrivalSpeed="11.25" duration="26.00" routeLength="277.20" waitingTime="0.00" waitingCount="0" stopTime="0.00" timeLoss="6.49" rerouteNo="0" devices="tripinfo_b1i.18" vType="car" speedFactor="1.08" vaporized=""/>
    <tripinfo id="c2i.19" depart="45.00" departLane="c2i_0" departPos="5.10" departSpeed="0.00" departDelay="5.00" arrival="72.00" arrivalLane="c3o_0" arrivalPos="138.65" arrivalSpeed="10.99" duration="27.00" routeLength="277.20" waitingTime="0.00" waitingCount="0" stopTime="0.00" timeLoss="6.98" rerouteNo="0" devices="tripinfo_c2i.19" vType="car" speedFactor="0.99" vaporized=""/>
    <tripinfo id="a4i.5" depart="12.00" departLane="a4i_0" departPos="5.10" departSpeed="0.00" departDelay="1.00" arrival="73.00" arrivalLane="b1o_0" arrivalPos="138.65" arrivalSpeed="10.62" duration="61.00" routeLength="777.40" waitingTime="0.00" waitingCount="0" stopTime="0.00" timeLoss="10.61" rerouteNo="0" devices="tripinfo_a4i.5" vType="car" speedFactor="1.02" vaporized=""/>
    <tripinfo id="a4i.21" depart="45.00" departLane="a4i_0" departPos="5.10" departSpeed="0.00" departDelay="9.00" arrival="73.00" arrivalLane="a1o_0" arrivalPos="138.65" arrivalSpeed="9.48" duration="28.00" routeLength="277.20" waitingTime="0.00" waitingCount="0" stopTime="0.00" timeLoss="6.21" rerouteNo="0" devices="tripinfo_a4i.21" vType="car" speedFactor="0.94" vaporized=""/>
    <tripinfo id="c3i.18" depart="41.00" departLane="c3i_0" departPos="5.10" departSpeed="0.00" departDelay="4.00" arrival="73.00" arrivalLane="c2o_0" arrivalPos="138.65" arrivalSpeed="11.00" duration="32.00" routeLength="293.16" waitingTime="0.00" waitingCount="0" stopTime="0.00" timeLoss="14.75" rerouteNo="0" devices="tripinfo_c3i.18" vType="car@c3i.18" speedFactor="1.04" vaporized=""/>
    <tripinfo id="a1i.16" depart="38.00" departLane="a1i_0" departPos="5.10" departSpeed="0.00" departDelay="0.00" arrival="74.00" arrivalLane="a4o_2" arrivalPos="138.65" arrivalSpeed="10.43" duration="36.00" routeLength="293.16" waitingTime="0.00" waitingCount="0" stopTime="0.00" timeLoss="14.65" rerouteNo="0" devices="tripinfo_a1i.16" vType="car" speedFactor="1.00" vaporized=""/>
    <tripinfo id="a4i.22" depart="48.00" departLane="a4i_0" departPos="5.10" departSpeed="0.00" departDelay="11.00" arrival="75.00" arrivalLane="a1o_0" arrivalPos="138.65" arrivalSpeed="10.71" duration="27.00" routeLength="277.20" waitingTime="0.00" waitingCount="0" stopTime="0.00" timeLoss="6.96" rerouteNo="0" devices="tripinfo_a4i.22" vType="car" speedFactor="1.00" vaporized=""/>
    <tripinfo id="c2i.6" depart="15.00" departLane="c2i_0" departPos="5.10" departSpeed="0.00" departDelay="0.00" arrival="76.00" arrivalLane="d3o_0" arrivalPos="138.65" arrivalSpeed="10.55" duration="61.00" routeLength="777.40" waitingTime="0.00" waitingCount="0" stopTime="0.00" timeLoss="11.46" rerouteNo="0" devices="tripinfo_c2i.6" vType="car@c2i.6" speedFactor="1.00" vaporized=""/>
    <tripinfo id="b2i.19" depart="46.00" departLane="b2i_0" departPos="5.10" departSpeed="0.00" departDelay="0.00" arrival="76.00" arrivalLane="b1o_1" arrivalPos="138.65" arrivalSpeed="8.91" duration="30.00" routeLength="293.16" waitingTime="0.00" waitingCount="0" stopTime="0.00" timeLoss="8.62" rerouteNo="0" devices="tripinfo_b2i.19" vType="car@b2i.19" speedFactor="0.89" vaporized=""/>
    <tripinfo id="b2i.13" depart="31.00" departLane="b2i_0" departPos="5.10" departSpeed="0.00" departDelay="1.00" arrival="77.00" arrivalLane="b1o_2" arrivalPos="138.65" arrivalSpeed="11.08" duration="46.00" routeLength="293.16" waitingTime="5.00" waitingCount="1" stopTime="0.00" timeLoss="25.28" rerouteNo="0" devices="tripinfo_b2i.13" vType="car@b2i.13" speedFactor="1.03" vaporized=""/>
    <tripinfo id="c2i.21" depart="49.00" departLane="c2i_0" departPos="5.10" departSpeed="0.00" departDelay="7.00" arrival="77.00" arrivalLane="c3o_0" arrivalPos="138.65" arrivalSpeed="9.88" duration="28.00" routeLength="277.20" waitingTime="0.00" waitingCount="0" stopTime="0.00" timeLoss="5.16" rerouteNo="0" devices="tripinfo_c2i.21" vType="car" speedFactor="0.89" vaporized=""/>
    <tripinfo id="c3i.17" depart="40.00" departLane="c3i_0" departPos="5.10" departSpeed="0.00" departDelay="8.00" arrival="78.00" arrivalLane="c2o_2" arrivalPos="138.65" arrivalSpeed="11.71" duration="38.00" routeLength="293.16" waitingTime="3.00" waitingCount="1" stopTime="0.00" timeLoss="17.73" rerouteNo="0" devices="tripinfo_c3i.17" vType="car@c3i.17" speedFactor="1.07" vaporized=""/>
    <tripinfo id="d4i.18" depart="45.00" departLane="d4i_0" departPos="5.10" departSpeed="0.00" departDelay="2.00" arrival="78.00" arrivalLane="d3o_1" arrivalPos="138.65" arrivalSpeed="10.60" duration="33.00" routeLength="293.16" waitingTime="0.00" waitingCount="0" stopTime="0.00" timeLoss="13.73" rerouteNo="0" devices="tripinfo_d4i.18" vType="car@d4i.18" speedFactor="1.03" vaporized=""/>
    <tripinfo id="b2i.2" depart="9.00" departLane="b2i_0" departPos="5.10" departSpeed="0.00" departDelay="2.00" arrival="79.00" arrivalLane="c2o_0" arrivalPos="138.65" arrivalSpeed="9.13" duration="70.00" routeLength="759.70" waitingTime="0.00" waitingCount="0" stopTime="0.00" timeLoss="8.81" rerouteNo="0" devices="tripinfo_b2i.2" vType="car" speedFactor="0.83" vaporized=""/>
    <tripinfo id="b2i.15" depart="36.00" departLane="b2i_0" departPos="5.10" departSpeed="0.00" departDelay="0.00" arrival="79.00" arrivalLane="b1o_2" arrivalPos="138.65" arrivalSpeed="11.88" duration="43.00" routeLength="293.16" waitingTime="3.00" waitingCount="1" stopTime="0.00" timeLoss="23.15" rerouteNo="0" devices="tripinfo_b2i.15" vType="car@b2i.15" speedFactor="1.13" vaporized=""/>
    <tripinfo id="b1i.20" depart="50.00" departLane="b1i_0" departPos="5.10" departSpeed="0.00" departDelay="9.00" arrival="79.00" arrivalLane="b2o_0" arrivalPos="138.65" arrivalSpeed="9.41" duration="29.00" routeLength="277.20" waitingTime="0.00" waitingCount="0" stopTime="0.00" timeLoss="6.97" rerouteNo="0" devices="tripinfo_b1i.20" vType="car" speedFactor="0.91" vaporized=""/>
    <tripinfo id="c2i.22" depart="52.00" departLane="c2i_0" departPos="5.10" departSpeed="0.00" departDelay="9.00" arrival="79.00" arrivalLane="c3o_0" arrivalPos="138.65" arrivalSpeed="11.42" duration="27.00" routeLength="277.20" waitingTime="0.00" waitingCount="0" stopTime="0.00" timeLoss="7.72" rerouteNo="0" devices="tripinfo_c2i.22" vType="car" speedFactor="1.09" vaporized=""/>
    <tripinfo id="d4i.17" depart="42.00" departLane="d4i_0" departPos="5.10" departSpeed="0.00" departDelay="0.00" arrival="80.00" arrivalLane="d3o_2" arrivalPos="138.65" arrivalSpeed="11.86" duration="38.00" routeLength="293.16" waitingTime="2.00" waitingCount="1" stopTime="0.00" timeLoss="18.51" rerouteNo="0" devices="tripinfo_d4i.17" vType="car@d4i.17" speedFactor="1.14" vaporized=""/>
    <tripinfo id="b2i.4" depart="13.00" departLane="b2i_0" departPos="5.10" departSpeed="0.00" departDelay="4.00" arrival="81.00" arrivalLane="c2o_0" arrivalPos="138.65" arrivalSpeed="11.01" duration="68.00" routeLength="759.70" waitingTime="0.00" waitingCount="0" stopTime="0.00" timeLoss="17.49" rerouteNo="0" devices="tripinfo_b2i.4" vType="car" speedFactor="1.01" vaporized=""/>
    <tripinfo id="d3i.23" depart="55.00" departLane="d3i_0" departPos="5.10" departSpeed="0.00" departDelay="19.00" arrival="81.00" arrivalLane="d4o_0" arrivalPos="138.65" arrivalSpeed="12.36" duration="26.00" routeLength="277.20" waitingTime="0.00" waitingCount="0" stopTime="0.00" timeLoss="7.46" rerouteNo="0" devices="tripinfo_d3i.23" vType="car" speedFactor="1.14" vaporized=""/>
    <tripinfo id="b1i.21" depart="53.00" departLane="b1i_0" departPos="5.10" departSpeed="0.00" departDelay="11.00" arrival="81.00" arrivalLane="b2o_0" arrivalPos="138.65" arrivalSpeed="11.46" duration="28.00" routeLength="277.20" waitingTime="0.00" waitingCount="0" stopTime="0.00" timeLoss="8.80" rerouteNo="0" devices="tripinfo_b1i.21" vType="car" speedFactor="1.09" vaporized=""/>
    <tripinfo id="d4i.8" depart="22.00" departLane="d4i_0" departPos="5.10" departSpeed="0.00" departDelay="2.00" arrival="82.00" arrivalLane="a4o_0" arrivalPos="138.65" arrivalSpeed="10.62" duration="60.00" routeLength="759.70" waitingTime="0.00" waitingCount="0" stopTime="0.00" timeLoss="9.32" rerouteNo="0" devices="tripinfo_d4i.8" vType="car" speedFactor="1.01" vaporized=""/>
    <tripinfo id="b2i.7" depart="21.00" departLane="b2i_0" departPos="5.10" departSpeed="0.00" departDelay="0.00" arrival="82.00" arrivalLane="c2o_0" arrivalPos="138.65" arrivalSpeed="10.99" duration="61.00" routeLength="759.70" waitingTime="0.00" waitingCount="0" stopTime="0.00" timeLoss="13.43" rerouteNo="0" devices="tripinfo_b2i.7" vType="car" speedFactor="1.09" vaporized=""/>
    <tripinfo id="b2i.17" depart="42.00" departLane="b2i_0" departPos="5.10" departSpeed="0.00" departDelay="0.00" arrival="82.00" arrivalLane="b1o_2" arrivalPos="138.65" arrivalSpeed="9.26" duration="40.00" routeLength="293.16" waitingTime="2.00" waitingCount="2" stopTime="0.00" timeLoss="16.52" rerouteNo="0" devices="tripinfo_b2i.17" vType="car@b2i.17" speedFactor="0.90" vaporized=""/>
    <tripinfo id="b2i.20" depart="50.00" departLane="b2i_0" departPos="5.10" departSpeed="0.00" departDelay="0.00" arrival="84.00" arrivalLane="b1o_2" arrivalPos="138.65" arrivalSpeed="9.53" duration="34.00" routeLength="293.16" waitingTime="0.00" waitingCount="0" stopTime="0.00" timeLoss="11.89" rerouteNo="0" devices="tripinfo_b2i.20" vType="car" speedFactor="0.95" vaporized=""/>
    <tripinfo id="d3i.2" depart="7.00" departLane="d3i_0" departPos="5.10" departSpeed="0.00" departDelay="3.00" arrival="87.00" arrivalLane="c3o_1" arrivalPos="138.65" arrivalSpeed="9.76" duration="80.00" routeLength="791.62" waitingTime="0.00" waitingCount="0" stopTime="0.00" timeLoss="16.90" rerouteNo="0" devices="tripinfo_d3i.2" vType="car@d3i.2" speedFactor="0.93" vaporized=""/>