<?xml version="1.0" encoding="UTF-8"?>

<!-- generated on 06/30/19 09:52:25 by Eclipse SUMO GUI Version 1.2.0
<configuration xmlns:xsi="http://www.w3.org/2001/XMLSchema-instance" xsi:noNamespaceSchemaLocation="http://sumo.dlr.de/xsd/sumoConfiguration.xsd">

    <input>
        <net-file value="../cfg/intersection_a.net.xml"/>
        <route-files value="../cfg/intersectiontest.rou.xml"/>
    </input>

    <output>
        <queue-output value="../output/queue.xml"/>
        <tripinfo-output value="../output/tripinfo.xml"/>
    </output>

    <time>
        <begin value="0"/>
        <end value="3600"/>
    </time>

    <processing>
        <collision.mingap-factor value="0"/>
        <time-to-teleport value="100"/>
        <tls.actuated.show-detectors value="true"/>
    </processing>

    <traci_server>
        <remote-port value="53813"/>
    </traci_server>

</configuration>
-->

<detector xmlns:xsi="http://www.w3.org/2001/XMLSchema-instance" xsi:noNamespaceSchemaLocation="http://sumo.dlr.de/xsd/det_e1_file.xsd">
    <interval begin="0.00" end="300.00" id="TLSa_my_program_InductLoopOn_a3i_1" nVehContrib="12" flow="144.00" occupancy="14.16" speed="10.56" harmonicMeanSpeed="1.41" length="5.00" nVehEntered="12"/>
    <interval begin="0.00" end="300.00" id="TLSa_my_program_InductLoopOn_a3i_2" nVehContrib="13" flow="156.00" occupancy="6.26" speed="12.10" harmonicMeanSpeed="3.46" length="5.00" nVehEntered="13"/>
    <interval begin="0.00" end="300.00" id="TLSa_my_program_InductLoopOn_a2i_1" nVehContrib="13" flow="156.00" occupancy="8.66" speed="12.62" harmonicMeanSpeed="2.50" length="5.00" nVehEntered="13"/>
    <interval begin="0.00" end="300.00" id="TLSa_my_program_InductLoopOn_a2i_2" nVehContrib="18" flow="216.00" occupancy="4.21" speed="11.11" harmonicMeanSpeed="7.12" length="5.00" nVehEntered="18"/>
    <interval begin="0.00" end="300.00" id="TLSa_my_program_InductLoopOn_a1i_1" nVehContrib="31" flow="372.00" occupancy="20.70" speed="9.65" harmonicMeanSpeed="2.50" length="5.00" nVehEntered="32"/>
    <interval begin="0.00" end="300.00" id="TLSa_my_program_InductLoopOn_a1i_2" nVehContrib="31" flow="372.00" occupancy="16.40" speed="9.99" harmonicMeanSpeed="3.16" length="5.00" nVehEntered="32"/>
    <interval begin="0.00" end="300.00" id="TLSa_my_program_InductLoopOn_a4i_1" nVehContrib="28" flow="336.00" occupancy="16.85" speed="11.23" harmonicMeanSpeed="2.77" length="5.00" nVehEntered="28"/>
    <interval begin="0.00" end="300.00" id="TLSa_my_program_InductLoopOn_a4i_2" nVehContrib="17" flow="204.00" occupancy="4.92" speed="11.80" harmonicMeanSpeed="5.76" length="5.00" nVehEntered="17"/>
    <interval begin="0.00" end="300.00" id="TLSb_my_program_InductLoopOn_b3i_1" nVehContrib="17" flow="204.00" occupancy="9.64" speed="12.35" harmonicMeanSpeed="4.36" length="5.00" nVehEntered="18"/>
    <interval begin="0.00" end="300.00" id="TLSb_my_program_InductLoopOn_b3i_2" nVehContrib="19" flow="228.00" occupancy="10.99" speed="13.27" harmonicMeanSpeed="2.88" length="5.00" nVehEntered="19"/>
    <interval begin="0.00" end="300.00" id="TLSb_my_program_InductLoopOn_b2i_1" nVehContrib="32" flow="384.00" occupancy="27.55" speed="9.09" harmonicMeanSpeed="1.94" length="5.00" nVehEntered="32"/>
    <interval begin="0.00" end="300.00" id="TLSb_my_program_InductLoopOn_b2i_2" nVehContrib="23" flow="276.00" occupancy="3.30" speed="12.81" harmonicMeanSpeed="11.61" length="5.00" nVehEntered="23"/>
    <interval begin="0.00" end="300.00" id="TLSb_my_program_InductLoopOn_b1i_1" nVehContrib="27" flow="324.00" occupancy="17.01" speed="10.77" harmonicMeanSpeed="6.21" length="5.00" nVehEntered="28"/>
    <interval begin="0.00" end="300.00" id="TLSb_my_program_InductLoopOn_b1i_2" nVehContrib="29" flow="348.00" occupancy="17.60" speed="10.72" harmonicMeanSpeed="2.75" length="5.00" nVehEntered="29"/>
    <interval begin="0.00" end="300.00" id="TLSb_my_program_InductLoopOn_b4i_1" nVehContrib="20" flow="240.00" occupancy="9.26" speed="12.41" harmonicMeanSpeed="3.60" length="5.00" nVehEntered="20"/>
    <interval begin="0.00" end="300.00" id="TLSb_my_program_InductLoopOn_b4i_2" nVehContrib="22" flow="264.00" occupancy="3.56" speed="12.74" harmonicMeanSpeed="10.31" length="5.00" nVehEntered="22"/>
    <interval begin="0.00" end="300.00" id="TLSc_my_program_InductLoopOn_c3i_1" nVehContrib="16" flow="192.00" occupancy="12.82" speed="12.49" harmonicMeanSpeed="11.28" length="5.00" nVehEntered="17"/>
    <interval begin="0.00" end="300.00" id="TLSc_my_program_InductLoopOn_c3i_2" nVehContrib="18" flow="216.00" occupancy="3.96" speed="14.11" harmonicMeanSpeed="7.57" length="5.00" nVehEntered="18"/>
    <interval begin="0.00" end="300.00" id="TLSc_my_program_InductLoopOn_c2i_1" nVehContrib="26" flow="312.00" occupancy="31.19" speed="10.84" harmonicMeanSpeed="3.47" length="5.00" nVehEntered="27"/>
    <interval begin="0.00" end="300.00" id="TLSc_my_program_InductLoopOn_c2i_2" nVehContrib="40" flow="480.00" occupancy="33.57" speed="9.92" harmonicMeanSpeed="2.28" length="5.00" nVehEntered="41"/>
    <interval begin="0.00" end="300.00" id="TLSc_my_program_InductLoopOn_c1i_1" nVehContrib="19" flow="228.00" occupancy="11.07" speed="11.69" harmonicMeanSpeed="7.29" length="5.00" nVehEntered="20"/>
    <interval begin="0.00" end="300.00" id="TLSc_my_program_InductLoopOn_c1i_2" nVehContrib="28" flow="336.00" occupancy="26.86" speed="9.17" harmonicMeanSpeed="1.74" length="5.00" nVehEntered="28"/>
    <interval begin="0.00" end="300.00" id="TLSc_my_program_InductLoopOn_c4i_1" nVehContrib="16" flow="192.00" occupancy="12.38" speed="10.25" harmonicMeanSpeed="2.36" length="5.00" nVehEntered="17"/>
    <interval begin="0.00" end="300.00" id="TLSc_my_program_InductLoopOn_c4i_2" nVehContrib="7" flow="84.00" occupancy="0.79" speed="15.37" harmonicMeanSpeed="14.75" length="5.00" nVehEntered="7"/>
    <interval begin="0.00" end="300.00" id="TLSd_my_program_InductLoopOn_d3i_1" nVehContrib="23" flow="276.00" occupancy="6.34" speed="13.61" harmonicMeanSpeed="12.87" length="5.00" nVehEntered="24"/>
    <interval begin="0.00" end="300.00" id="TLSd_my_program_InductLoopOn_d3i_2" nVehContrib="20" flow="240.00" occupancy="8.65" speed="12.16" harmonicMeanSpeed="3.85" length="5.00" nVehEntered="20"/>
    <interval begin="0.00" end="300.00" id="TLSd_my_program_InductLoopOn_d2i_1" nVehContrib="22" flow="264.00" occupancy="21.24" speed="11.65" harmonicMeanSpeed="1.73" length="5.00" nVehEntered="22"/>
    <interval begin="0.00" end="300.00" id="TLSd_my_program_InductLoopOn_d2i_2" nVehContrib="14" flow="168.00" occupancy="1.78" speed="13.77" harmonicMeanSpeed="13.14" length="5.00" nVehEntered="14"/>
    <interval begin="0.00" end="300.00" id="TLSd_my_program_InductLoopOn_d1i_1" nVehContrib="17" flow="204.00" occupancy="3.66" speed="10.71" harmonicMeanSpeed="7.74" length="5.00" nVehEntered="17"/>
    <interval begin="0.00" end="300.00" id="TLSd_my_program_InductLoopOn_d1i_2" nVehContrib="18" flow="216.00" occupancy="12.56" speed="11.74" harmonicMeanSpeed="2.39" length="5.00" nVehEntered="18"/>
    <interval begin="0.00" end="300.00" id="TLSd_my_program_InductLoopOn_d4i_1" nVehContrib="10" flow="120.00" occupancy="1.05" speed="16.00" harmonicMeanSpeed="15.85" length="5.00" nVehEntered="10"/>
    <interval begin="0.00" end="300.00" id="TLSd_my_program_InductLoopOn_d4i_2" nVehContrib="16" flow="192.00" occupancy="11.22" speed="13.01" harmonicMeanSpeed="2.38" length="5.00" nVehEntered="16"/>
    <interval begin="0.00" end="300.00" id="TLSe_my_program_InductLoopOn_e3i_1" nVehContrib="19" flow="228.00" occupancy="7.22" speed="11.38" harmonicMeanSpeed="4.39" length="5.00" nVehEntered="19"/>
    <interval begin="0.00" end="300.00" id="TLSe_my_program_InductLoopOn_e3i_2" nVehContrib="18" flow="216.00" occupancy="2.44" speed="13.91" harmonicMeanSpeed="12.32" length="5.00" nVehEntered="18"/>
    <interval begin="0.00" end="300.00" id="TLSe_my_program_InductLoopOn_e2i_1" nVehContrib="15" flow="180.00" occupancy="2.01" speed="13.36" harmonicMeanSpeed="12.46" length="5.00" nVehEntered="15"/>
    <interval begin="0.00" end="300.00" id="TLSe_my_program_InductLoopOn_e2i_2" nVehContrib="15" flow="180.00" occupancy="20.58" speed="10.70" harmonicMeanSpeed="1.21" length="5.00" nVehEntered="15"/>
    <interval begin="0.00" end="300.00" id="TLSe_my_program_InductLoopOn_e1i_1" nVehContrib="30" flow="360.00" occupancy="20.34" speed="9.75" harmonicMeanSpeed="2.46" length="5.00" nVehEntered="30"/>
    <interval begin="0.00" end="300.00" id="TLSe_my_program_InductLoopOn_e1i_2" nVehContrib="36" flow="432.00" occupancy="22.08" speed="10.85" harmonicMeanSpeed="3.20" length="5.00" nVehEntered="37"/>
    <interval begin="0.00" end="300.00" id="TLSe_my_program_InductLoopOn_e4i_1" nVehContrib="28" flow="336.00" occupancy="20.53" speed="10.09" harmonicMeanSpeed="2.27" length="5.00" nVehEntered="28"/>
    <interval begin="0.00" end="300.00" id="TLSe_my_program_InductLoopOn_e4i_2" nVehContrib="27" flow="324.00" occupancy="18.13" speed="10.97" harmonicMeanSpeed="2.48" length="5.00" nVehEntered="27"/>
    <interval begin="0.00" end="300.00" id="TLSf_my_program_InductLoopOn_f3i_1" nVehContrib="25" flow="300.00" occupancy="18.52" speed="10.93" harmonicMeanSpeed="2.74" length="5.00" nVehEntered="26"/>
    <interval begin="0.00" end="300.00" id="TLSf_my_program_InductLoopOn_f3i_2" nVehContrib="22" flow="264.00" occupancy="17.05" speed="12.60" harmonicMeanSpeed="2.15" length="5.00" nVehEntered="22"/>
    <interval begin="0.00" end="300.00" id="TLSf_my_program_InductLoopOn_f2i_1" nVehContrib="8" flow="96.00" occupancy="1.16" speed="13.03" harmonicMeanSpeed="11.46" length="5.00" nVehEntered="8"/>
    <interval begin="0.00" end="300.00" id="TLSf_my_program_InductLoopOn_f2i_2" nVehContrib="11" flow="132.00" occupancy="1.03" speed="17.90" harmonicMeanSpeed="17.80" length="5.00" nVehEntered="11"/>
    <interval begin="0.00" end="300.00" id="TLSf_my_program_InductLoopOn_f1i_1" nVehContrib="11" flow="132.00" occupancy="1.18" speed="15.81" harmonicMeanSpeed="15.58" length="5.00" nVehEntered="11"/>
    <interval begin="0.00" end="300.00" id="TLSf_my_program_InductLoopOn_f1i_2" nVehContrib="25" flow="300.00" occupancy="26.06" speed="10.61" harmonicMeanSpeed="1.60" length="5.00" nVehEntered="25"/>
    <interval begin="0.00" end="300.00" id="TLSf_my_program_InductLoopOn_f4i_1" nVehContrib="22" flow="264.00" occupancy="28.83" speed="12.88" harmonicMeanSpeed="11.58" length="5.00" nVehEntered="23"/>
    <interval begin="0.00" end="300.00" id="TLSf_my_program_InductLoopOn_f4i_2" nVehContrib="25" flow="300.00" occupancy="16.18" speed="12.08" harmonicMeanSpeed="2.58" length="5.00" nVehEntered="25"/>
    <interval begin="0.00" end="300.00" id="TLSg_my_program_InductLoopOn_g3i_1" nVehContrib="44" flow="528.00" occupancy="37.83" speed="9.19" harmonicMeanSpeed="2.09" length="5.00" nVehEntered="45"/>
    <interval begin="0.00" end="300.00" id="TLSg_my_program_InductLoopOn_g3i_2" nVehContrib="30" flow="360.00" occupancy="43.16" speed="8.68" harmonicMeanSpeed="1.16" length="5.00" nVehEntered="30"/>
    <interval begin="0.00" end="300.00" id="TLSg_my_program_InductLoopOn_g2i_1" nVehContrib="15" flow="180.00" occupancy="16.10" speed="9.64" harmonicMeanSpeed="1.55" length="5.00" nVehEntered="15"/>
    <interval begin="0.00" end="300.00" id="TLSg_my_program_InductLoopOn_g2i_2" nVehContrib="15" flow="180.00" occupancy="2.97" speed="12.76" harmonicMeanSpeed="8.41" length="5.00" nVehEntered="15"/>
    <interval begin="0.00" end="300.00" id="TLSg_my_program_InductLoopOn_g1i_1" nVehContrib="9" flow="108.00" occupancy="5.23" speed="14.25" harmonicMeanSpeed="12.61" length="5.00" nVehEntered="10"/>
    <interval begin="0.00" end="300.00" id="TLSg_my_program_InductLoopOn_g1i_2" nVehContrib="11" flow="132.00" occupancy="3.88" speed="11.90" harmonicMeanSpeed="4.72" length="5.00" nVehEntered="11"/>
    <interval begin="0.00" end="300.00" id="TLSg_my_program_InductLoopOn_g4i_1" nVehContrib="24" flow="288.00" occupancy="39.34" speed="10.46" harmonicMeanSpeed="2.31" length="5.00" nVehEntered="25"/>
    <interval begin="0.00" end="300.00" id="TLSg_my_program_InductLoopOn_g4i_2" nVehContrib="35" flow="420.00" occupancy="44.64" speed="9.29" harmonicMeanSpeed="1.31" length="5.00" nVehEntered="35"/>
    <interval begin="0.00" end="300.00" id="TLSh_my_program_InductLoopOn_h3i_1" nVehContrib="37" flow="444.00" occupancy="18.53" speed="10.32" harmonicMeanSpeed="4.70" length="5.00" nVehEntered="38"/>
    <interval begin="0.00" end="300.00" id="TLSh_my_program_InductLoopOn_h3i_2" nVehContrib="27" flow="324.00" occupancy="18.27" speed="10.34" harmonicMeanSpeed="2.46" length="5.00" nVehEntered="27"/>
    <interval begin="0.00" end="300.00" id="TLSh_my_program_InductLoopOn_h2i_1" nVehContrib="15" flow="180.00" occupancy="12.54" speed="11.86" harmonicMeanSpeed="1.99" length="5.00" nVehEntered="15"/>
    <interval begin="0.00" end="300.00" id="TLSh_my_program_InductLoopOn_h2i_2" nVehContrib="16" flow="192.00" occupancy="2.09" speed="14.37" harmonicMeanSpeed="12.74" length="5.00" nVehEntered="16"/>
    <interval begin="0.00" end="300.00" id="TLSh_my_program_InductLoopOn_h1i_1" nVehContrib="11" flow="132.00" occupancy="5.54" speed="14.36" harmonicMeanSpeed="13.23" length="5.00" nVehEntered="12"/>
    <interval begin="0.00" end="300.00" id="TLSh_my_program_InductLoopOn_h1i_2" nVehContrib="14" flow="168.00" occupancy="3.01" speed="11.70" harmonicMeanSpeed="7.75" length="5.00" nVehEntered="14"/>
    <interval begin="0.00" end="300.00" id="TLSh_my_program_InductLoopOn_h4i_1" nVehContrib="13" flow="156.00" occupancy="6.28" speed="13.19" harmonicMeanSpeed="3.45" length="5.00" nVehEntered="13"/>
    <interval begin="0.00" end="300.00" id="TLSh_my_program_InductLoopOn_h4i_2" nVehContrib="21" flow="252.00" occupancy="9.98" speed="12.08" harmonicMeanSpeed="3.51" length="5.00" nVehEntered="21"/>
    <interval begin="0.00" end="300.00" id="TLSj_my_program_InductLoopOn_j3i_1" nVehContrib="31" flow="372.00" occupancy="20.65" speed="10.97" harmonicMeanSpeed="3.48" length="5.00" nVehEntered="32"/>
    <interval begin="0.00" end="300.00" id="TLSj_my_program_InductLoopOn_j3i_2" nVehContrib="28" flow="336.00" occupancy="6.37" speed="13.08" harmonicMeanSpeed="7.33" length="5.00" nVehEntered="28"/>
    <interval begin="0.00" end="300.00" id="TLSj_my_program_InductLoopOn_j2i_1" nVehContrib="27" flow="324.00" occupancy="23.50" speed="9.52" harmonicMeanSpeed="1.92" length="5.00" nVehEntered="27"/>
    <interval begin="0.00" end="300.00" id="TLSj_my_program_InductLoopOn_j2i_2" nVehContrib="31" flow="372.00" occupancy="32.84" speed="9.83" harmonicMeanSpeed="1.57" length="5.00" nVehEntered="31"/>
    <interval begin="0.00" end="300.00" id="TLSj_my_program_InductLoopOn_j1i_1" nVehContrib="18" flow="216.00" occupancy="10.81" speed="12.32" harmonicMeanSpeed="3.43" length="5.00" nVehEntered="19"/>
    <interval begin="0.00" end="300.00" id="TLSj_my_program_InductLoopOn_j1i_2" nVehContrib="13" flow="156.00" occupancy="2.12" speed="13.52" harmonicMeanSpeed="10.21" length="5.00" nVehEntered="13"/>
    <interval begin="0.00" end="300.00" id="TLSj_my_program_InductLoopOn_j4i_1" nVehContrib="14" flow="168.00" occupancy="1.62" speed="14.74" harmonicMeanSpeed="14.45" length="5.00" nVehEntered="14"/>
    <interval begin="0.00" end="300.00" id="TLSj_my_program_InductLoopOn_j4i_2" nVehContrib="14" flow="168.00" occupancy="1.70" speed="14.71" harmonicMeanSpeed="13.76" length="5.00" nVehEntered="14"/>
    <interval begin="300.00" end="600.00" id="TLSa_my_program_InductLoopOn_a3i_1" nVehContrib="31" flow="372.00" occupancy="24.95" speed="10.22" harmonicMeanSpeed="2.07" length="5.00" nVehEntered="31"/>
    <interval begin="300.00" end="600.00" id="TLSa_my_program_InductLoopOn_a3i_2" nVehContrib="24" flow="288.00" occupancy="8.16" speed="11.93" harmonicMeanSpeed="4.90" length="5.00" nVehEntered="24"/>
    <interval begin="300.00" end="600.00" id="TLSa_my_program_InductLoopOn_a2i_1" nVehContrib="29" flow="348.00" occupancy="34.41" speed="9.25" harmonicMeanSpeed="1.40" length="5.00" nVehEntered="29"/>
    <interval begin="300.00" end="600.00" id="TLSa_my_program_InductLoopOn_a2i_2" nVehContrib="26" flow="312.00" occupancy="29.76" speed="8.91" harmonicMeanSpeed="1.46" length="5.00" nVehEntered="26"/>
    <interval begin="300.00" end="600.00" id="TLSa_my_program_InductLoopOn_a1i_1" nVehContrib="30" flow="360.00" occupancy="23.22" speed="10.81" harmonicMeanSpeed="2.17" length="5.00" nVehEntered="30"/>
    <interval begin="300.00" end="600.00" id="TLSa_my_program_InductLoopOn_a1i_2" nVehContrib="34" flow="408.00" occupancy="24.51" speed="8.67" harmonicMeanSpeed="2.31" length="5.00" nVehEntered="33"/>
    <interval begin="300.00" end="600.00" id="TLSa_my_program_InductLoopOn_a4i_1" nVehContrib="27" flow="324.00" occupancy="41.78" speed="8.97" harmonicMeanSpeed="1.41" length="5.00" nVehEntered="28"/>
    <interval begin="300.00" end="600.00" id="TLSa_my_program_InductLoopOn_a4i_2" nVehContrib="28" flow="336.00" occupancy="35.68" speed="9.14" harmonicMeanSpeed="1.31" length="5.00" nVehEntered="28"/>
    <interval begin="300.00" end="600.00" id="TLSb_my_program_InductLoopOn_b3i_1" nVehContrib="26" flow="312.00" occupancy="33.54" speed="8.99" harmonicMeanSpeed="1.18" length="5.00" nVehEntered="25"/>
    <interval begin="300.00" end="600.00" id="TLSb_my_program_InductLoopOn_b3i_2" nVehContrib="24" flow="288.00" occupancy="18.44" speed="10.91" harmonicMeanSpeed="2.17" length="5.00" nVehEntered="24"/>
    <interval begin="300.00" end="600.00" id="TLSb_my_program_InductLoopOn_b2i_1" nVehContrib="31" flow="372.00" occupancy="12.88" speed="10.46" harmonicMeanSpeed="4.01" length="5.00" nVehEntered="31"/>
    <interval begin="300.00" end="600.00" id="TLSb_my_program_InductLoopOn_b2i_2" nVehContrib="34" flow="408.00" occupancy="45.30" speed="9.62" harmonicMeanSpeed="1.26" length="5.00" nVehEntered="35"/>
    <interval begin="300.00" end="600.00" id="TLSb_my_program_InductLoopOn_b1i_1" nVehContrib="27" flow="324.00" occupancy="19.01" speed="9.42" harmonicMeanSpeed="1.56" length="5.00" nVehEntered="26"/>
    <interval begin="300.00" end="600.00" id="TLSb_my_program_InductLoopOn_b1i_2" nVehContrib="33" flow="396.00" occupancy="50.36" speed="9.44" harmonicMeanSpeed="1.31" length="5.00" nVehEntered="34"/>
    <interval begin="300.00" end="600.00" id="TLSb_my_program_InductLoopOn_b4i_1" nVehContrib="34" flow="408.00" occupancy="41.46" speed="10.08" harmonicMeanSpeed="1.37" length="5.00" nVehEntered="34"/>
    <interval begin="300.00" end="600.00" id="TLSb_my_program_InductLoopOn_b4i_2" nVehContrib="29" flow="348.00" occupancy="36.47" speed="9.72" harmonicMeanSpeed="1.76" length="5.00" nVehEntered="30"/>
    <interval begin="300.00" end="600.00" id="TLSc_my_program_InductLoopOn_c3i_1" nVehContrib="29" flow="348.00" occupancy="38.50" speed="8.77" harmonicMeanSpeed="0.99" length="5.00" nVehEntered="28"/>
    <interval begin="300.00" end="600.00" id="TLSc_my_program_InductLoopOn_c3i_2" nVehContrib="23" flow="276.00" occupancy="38.15" speed="9.49" harmonicMeanSpeed="2.55" length="5.00" nVehEntered="24"/>
    <interval begin="300.00" end="600.00" id="TLSc_my_program_InductLoopOn_c2i_1" nVehContrib="43" flow="516.00" occupancy="31.86" speed="8.89" harmonicMeanSpeed="1.43" length="5.00" nVehEntered="45"/>
    <interval begin="300.00" end="600.00" id="TLSc_my_program_InductLoopOn_c2i_2" nVehContrib="25" flow="300.00" occupancy="83.87" speed="4.68" harmonicMeanSpeed="0.47" length="5.00" nVehEntered="24"/>
    <interval begin="300.00" end="600.00" id="TLSc_my_program_InductLoopOn_c1i_1" nVehContrib="26" flow="312.00" occupancy="17.19" speed="10.56" harmonicMeanSpeed="1.81" length="5.00" nVehEntered="25"/>
    <interval begin="300.00" end="600.00" id="TLSc_my_program_InductLoopOn_c1i_2" nVehContrib="22" flow="264.00" occupancy="43.31" speed="9.78" harmonicMeanSpeed="1.94" length="5.00" nVehEntered="23"/>
    <interval begin="300.00" end="600.00" id="TLSc_my_program_InductLoopOn_c4i_1" nVehContrib="30" flow="360.00" occupancy="12.79" speed="9.75" harmonicMeanSpeed="3.60" length="5.00" nVehEntered="29"/>
    <interval begin="300.00" end="600.00" id="TLSc_my_program_InductLoopOn_c4i_2" nVehContrib="27" flow="324.00" occupancy="29.76" speed="9.28" harmonicMeanSpeed="1.51" length="5.00" nVehEntered="27"/>
    <interval begin="300.00" end="600.00" id="TLSd_my_program_InductLoopOn_d3i_1" nVehContrib="33" flow="396.00" occupancy="44.34" speed="9.08" harmonicMeanSpeed="1.15" length="5.00" nVehEntered="32"/>
    <interval begin="300.00" end="600.00" id="TLSd_my_program_InductLoopOn_d3i_2" nVehContrib="25" flow="300.00" occupancy="36.67" speed="9.75" harmonicMeanSpeed="1.14" length="5.00" nVehEntered="25"/>
    <interval begin="300.00" end="600.00" id="TLSd_my_program_InductLoopOn_d2i_1" nVehContrib="23" flow="276.00" occupancy="16.84" speed="10.10" harmonicMeanSpeed="2.28" length="5.00" nVehEntered="23"/>
    <interval begin="300.00" end="600.00" id="TLSd_my_program_InductLoopOn_d2i_2" nVehContrib="32" flow="384.00" occupancy="30.00" speed="10.53" harmonicMeanSpeed="1.78" length="5.00" nVehEntered="32"/>
    <interval begin="300.00" end="600.00" id="TLSd_my_program_InductLoopOn_d1i_1" nVehContrib="23" flow="276.00" occupancy="9.04" speed="10.46" harmonicMeanSpeed="4.28" length="5.00" nVehEntered="24"/>
    <interval begin="300.00" end="600.00" id="TLSd_my_program_InductLoopOn_d1i_2" nVehContrib="30" flow="360.00" occupancy="34.04" speed="10.52" harmonicMeanSpeed="1.48" length="5.00" nVehEntered="31"/>
    <interval begin="300.00" end="600.00" id="TLSd_my_program_InductLoopOn_d4i_1" nVehContrib="29" flow="348.00" occupancy="23.96" speed="9.17" harmonicMeanSpeed="2.03" length="5.00" nVehEntered="30"/>
    <interval begin="300.00" end="600.00" id="TLSd_my_program_InductLoopOn_d4i_2" nVehContrib="28" flow="336.00" occupancy="39.29" speed="8.94" harmonicMeanSpeed="1.19" length="5.00" nVehEntered="28"/>
    <interval begin="300.00" end="600.00" id="TLSe_my_program_InductLoopOn_e3i_1" nVehContrib="34" flow="408.00" occupancy="40.67" speed="9.78" harmonicMeanSpeed="1.39" length="5.00" nVehEntered="34"/>
    <interval begin="300.00" end="600.00" id="TLSe_my_program_InductLoopOn_e3i_2" nVehContrib="28" flow="336.00" occupancy="44.42" speed="11.29" harmonicMeanSpeed="2.23" length="5.00" nVehEntered="29"/>
    <interval begin="300.00" end="600.00" id="TLSe_my_program_InductLoopOn_e2i_1" nVehContrib="34" flow="408.00" occupancy="50.01" speed="9.24" harmonicMeanSpeed="1.72" length="5.00" nVehEntered="35"/>
    <interval begin="300.00" end="600.00" id="TLSe_my_program_InductLoopOn_e2i_2" nVehContrib="31" flow="372.00" occupancy="47.76" speed="9.54" harmonicMeanSpeed="1.09" length="5.00" nVehEntered="32"/>
    <interval begin="300.00" end="600.00" id="TLSe_my_program_InductLoopOn_e1i_1" nVehContrib="33" flow="396.00" occupancy="41.61" speed="8.79" harmonicMeanSpeed="1.32" length="5.00" nVehEntered="33"/>
    <interval begin="300.00" end="600.00" id="TLSe_my_program_InductLoopOn_e1i_2" nVehContrib="27" flow="324.00" occupancy="48.66" speed="9.72" harmonicMeanSpeed="1.65" length="5.00" nVehEntered="27"/>
    <interval begin="300.00" end="600.00" id="TLSe_my_program_InductLoopOn_e4i_1" nVehContrib="26" flow="312.00" occupancy="23.97" speed="10.71" harmonicMeanSpeed="2.00" length="5.00" nVehEntered="27"/>
    <interval begin="300.00" end="600.00" id="TLSe_my_program_InductLoopOn_e4i_2" nVehContrib="32" flow="384.00" occupancy="40.07" speed="8.86" harmonicMeanSpeed="1.33" length="5.00" nVehEntered="32"/>
    <interval begin="300.00" end="600.00" id="TLSf_my_program_InductLoopOn_f3i_1" nVehContrib="34" flow="408.00" occupancy="49.08" speed="8.84" harmonicMeanSpeed="1.08" length="5.00" nVehEntered="33"/>
    <interval begin="300.00" end="600.00" id="TLSf_my_program_InductLoopOn_f3i_2" nVehContrib="26" flow="312.00" occupancy="15.96" speed="11.02" harmonicMeanSpeed="5.23" length="5.00" nVehEntered="27"/>
    <interval begin="300.00" end="600.00" id="TLSf_my_program_InductLoopOn_f2i_1" nVehContrib="30" flow="360.00" occupancy="22.45" speed="9.55" harmonicMeanSpeed="2.23" length="5.00" nVehEntered="30"/>
    <interval begin="300.00" end="600.00" id="TLSf_my_program_InductLoopOn_f2i_2" nVehContrib="33" flow="396.00" occupancy="30.59" speed="10.84" harmonicMeanSpeed="2.30" length="5.00" nVehEntered="34"/>
    <interval begin="300.00" end="600.00" id="TLSf_my_program_InductLoopOn_f1i_1" nVehContrib="17" flow="204.00" occupancy="5.36" speed="11.13" harmonicMeanSpeed="5.37" length="5.00" nVehEntered="18"/>
    <interval begin="300.00" end="600.00" id="TLSf_my_program_InductLoopOn_f1i_2" nVehContrib="29" flow="348.00" occupancy="50.78" speed="9.66" harmonicMeanSpeed="0.98" length="5.00" nVehEntered="30"/>
    <interval begin="300.00" end="600.00" id="TLSf_my_program_InductLoopOn_f4i_1" nVehContrib="37" flow="444.00" occupancy="40.04" speed="9.51" harmonicMeanSpeed="0.94" length="5.00" nVehEntered="36"/>
    <interval begin="300.00" end="600.00" id="TLSf_my_program_InductLoopOn_f4i_2" nVehContrib="31" flow="372.00" occupancy="31.99" speed="9.29" harmonicMeanSpeed="1.62" length="5.00" nVehEntered="31"/>
    <interval begin="300.00" end="600.00" id="TLSg_my_program_InductLoopOn_g3i_1" nVehContrib="29" flow="348.00" occupancy="68.33" speed="9.16" harmonicMeanSpeed="0.99" length="5.00" nVehEntered="29"/>
    <interval begin="300.00" end="600.00" id="TLSg_my_program_InductLoopOn_g3i_2" nVehContrib="34" flow="408.00" occupancy="40.74" speed="9.85" harmonicMeanSpeed="1.39" length="5.00" nVehEntered="34"/>
    <interval begin="300.00" end="600.00" id="TLSg_my_program_InductLoopOn_g2i_1" nVehContrib="34" flow="408.00" occupancy="29.44" speed="9.41" harmonicMeanSpeed="1.92" length="5.00" nVehEntered="34"/>
    <interval begin="300.00" end="600.00" id="TLSg_my_program_InductLoopOn_g2i_2" nVehContrib="28" flow="336.00" occupancy="55.88" speed="9.30" harmonicMeanSpeed="0.94" length="5.00" nVehEntered="29"/>
    <interval begin="300.00" end="600.00" id="TLSg_my_program_InductLoopOn_g1i_1" nVehContrib="25" flow="300.00" occupancy="58.29" speed="9.35" harmonicMeanSpeed="0.79" length="5.00" nVehEntered="25"/>
    <interval begin="300.00" end="600.00" id="TLSg_my_program_InductLoopOn_g1i_2" nVehContrib="22" flow="264.00" occupancy="12.26" speed="10.92" harmonicMeanSpeed="2.99" length="5.00" nVehEntered="22"/>
    <interval begin="300.00" end="600.00" id="TLSg_my_program_InductLoopOn_g4i_1" nVehContrib="47" flow="564.00" occupancy="54.29" speed="9.21" harmonicMeanSpeed="1.03" length="5.00" nVehEntered="46"/>
    <interval begin="300.00" end="600.00" id="TLSg_my_program_InductLoopOn_g4i_2" nVehContrib="23" flow="276.00" occupancy="40.46" speed="8.29" harmonicMeanSpeed="1.02" length="5.00" nVehEntered="24"/>
    <interval begin="300.00" end="600.00" id="TLSh_my_program_InductLoopOn_h3i_1" nVehContrib="41" flow="492.00" occupancy="54.22" speed="9.02" harmonicMeanSpeed="1.15" length="5.00" nVehEntered="40"/>
    <interval begin="300.00" end="600.00" id="TLSh_my_program_InductLoopOn_h3i_2" nVehContrib="30" flow="360.00" occupancy="50.19" speed="9.61" harmonicMeanSpeed="1.21" length="5.00" nVehEntered="31"/>
    <interval begin="300.00" end="600.00" id="TLSh_my_program_InductLoopOn_h2i_1" nVehContrib="25" flow="300.00" occupancy="42.82" speed="9.15" harmonicMeanSpeed="0.97" length="5.00" nVehEntered="25"/>
    <interval begin="300.00" end="600.00" id="TLSh_my_program_InductLoopOn_h2i_2" nVehContrib="21" flow="252.00" occupancy="6.77" speed="12.20" harmonicMeanSpeed="5.17" length="5.00" nVehEntered="21"/>
    <interval begin="300.00" end="600.00" id="TLSh_my_program_InductLoopOn_h1i_1" nVehContrib="27" flow="324.00" occupancy="45.43" speed="9.31" harmonicMeanSpeed="0.91" length="5.00" nVehEntered="26"/>
    <interval begin="300.00" end="600.00" id="TLSh_my_program_InductLoopOn_h1i_2" nVehContrib="19" flow="228.00" occupancy="21.06" speed="9.33" harmonicMeanSpeed="1.51" length="5.00" nVehEntered="20"/>
    <interval begin="300.00" end="600.00" id="TLSh_my_program_InductLoopOn_h4i_1" nVehContrib="32" flow="384.00" occupancy="47.11" speed="8.89" harmonicMeanSpeed="1.13" length="5.00" nVehEntered="32"/>
    <interval begin="300.00" end="600.00" id="TLSh_my_program_InductLoopOn_h4i_2" nVehContrib="34" flow="408.00" occupancy="62.23" speed="8.63" harmonicMeanSpeed="0.91" length="5.00" nVehEntered="34"/>
    <interval begin="300.00" end="600.00" id="TLSj_my_program_InductLoopOn_j3i_1" nVehContrib="23" flow="276.00" occupancy="34.86" speed="10.08" harmonicMeanSpeed="0.94" length="5.00" nVehEntered="23"/>
    <interval begin="300.00" end="600.00" id="TLSj_my_program_InductLoopOn_j3i_2" nVehContrib="36" flow="432.00" occupancy="46.68" speed="9.01" harmonicMeanSpeed="1.29" length="5.00" nVehEntered="36"/>
    <interval begin="300.00" end="600.00" id="TLSj_my_program_InductLoopOn_j2i_1" nVehContrib="41" flow="492.00" occupancy="42.33" speed="10.22" harmonicMeanSpeed="1.61" length="5.00" nVehEntered="41"/>
    <interval begin="300.00" end="600.00" id="TLSj_my_program_InductLoopOn_j2i_2" nVehContrib="24" flow="288.00" occupancy="36.49" speed="9.49" harmonicMeanSpeed="2.02" length="5.00" nVehEntered="25"/>
    <interval begin="300.00" end="600.00" id="TLSj_my_program_InductLoopOn_j1i_1" nVehContrib="25" flow="300.00" occupancy="43.37" speed="9.92" harmonicMeanSpeed="1.07" length="5.00" nVehEntered="25"/>
    <interval begin="300.00" end="600.00" id="TLSj_my_program_InductLoopOn_j1i_2" nVehContrib="15" flow="180.00" occupancy="1.74" speed="15.03" harmonicMeanSpeed="14.33" length="5.00" nVehEntered="15"/>
    <interval begin="300.00" end="600.00" id="TLSj_my_program_InductLoopOn_j4i_1" nVehContrib="39" flow="468.00" occupancy="27.22" speed="10.23" harmonicMeanSpeed="2.39" length="5.00" nVehEntered="39"/>