<?xml version="1.0" encoding="UTF-8"?>

<!-- generated on 12/12/18 14:31:51 by Eclipse SUMO GUI Version 1.0.0
<configuration xmlns:xsi="http://www.w3.org/2001/XMLSchema-instance" xsi:noNamespaceSchemaLocation="http://sumo.dlr.de/xsd/sumoConfiguration.xsd">

    <input>
        <net-file value="intersection.net.xml"/>
        <route-files value="intersectiontest.rou.xml"/>
    </input>

    <output>
        <queue-output value="queue.xml"/>
        <tripinfo-output value="tripinfo.xml"/>
    </output>

    <time>
        <begin value="0"/>
        <end value="3600"/>
    </time>

    <processing>
        <collision.mingap-factor value="0"/>
        <time-to-teleport value="100"/>
    </processing>

    <traci_server>
        <remote-port value="58720"/>
    </traci_server>

</configuration>
-->

<queue-export xmlns:xsi="http://www.w3.org/2001/XMLSchema-instance" xsi:noNamespaceSchemaLocation="http://sumo.dlr.de/xsd/queue_file.xsd">
    <data timestep="0.00">
        <lanes/>
    </data>
    <data timestep="1.00">
        <lanes/>
    </data>
    <data timestep="2.00">
        <lanes/>
    </data>
    <data timestep="3.00">
        <lanes>
            <lane id="b2i_1" queueing_time="1.00" queueing_length="137.44" queueing_length_experimental="0.00"/>
        </lanes>
    </data>
    <data timestep="4.00">
        <lanes/>
    </data>
    <data timestep="5.00">
        <lanes/>
    </data>
    <data timestep="6.00">
        <lanes>
            <lane id="e4i_1" queueing_time="1.00" queueing_length="137.10" queueing_length_experimental="0.00"/>
            <lane id="g4i_1" queueing_time="1.00" queueing_length="136.80" queueing_length_experimental="0.00"/>
        </lanes>
    </data>
    <data timestep="7.00">
        <lanes/>
    </data>
    <data timestep="8.00">
        <lanes/>
    </data>
    <data timestep="9.00">
        <lanes>
            <lane id="a1i_1" queueing_time="1.00" queueing_length="136.85" queueing_length_experimental="0.00"/>
            <lane id="c2i_1" queueing_time="1.00" queueing_length="136.96" queueing_length_experimental="0.00"/>
            <lane id="j2i_1" queueing_time="1.00" queueing_length="136.68" queueing_length_experimental="0.00"/>
        </lanes>
    </data>
    <data timestep="10.00">
        <lanes/>
    </data>
    <data timestep="11.00">
        <lanes/>
    </data>
    <data timestep="12.00">
        <lanes/>
    </data>
    <data timestep="13.00">
        <lanes/>
    </data>
    <data timestep="14.00">
        <lanes/>
    </data>
    <data timestep="15.00">
        <lanes/>
    </data>
    <data timestep="16.00">
        <lanes/>
    </data>
    <data timestep="17.00">
        <lanes/>
    </data>
    <data timestep="18.00">
        <lanes/>
    </data>
    <data timestep="19.00">
        <lanes>
            <lane id="b2i_2" queueing_time="1.00" queueing_length="6.00" queueing_length_experimental="6.00"/>
        </lanes>
    </data>
    <data timestep="20.00">
        <lanes>
            <lane id="b2i_2" queueing_time="2.00" queueing_length="6.00" queueing_length_experimental="6.00"/>
        </lanes>
    </data>
    <data timestep="21.00">
        <lanes>
            <lane id="b1i_2" queueing_time="0.00" queueing_length="0.00" queueing_length_experimental="6.00"/>
            <lane id="b2i_2" queueing_time="3.00" queueing_length="6.00" queueing_length_experimental="6.00"/>
        </lanes>
    </data>
    <data timestep="22.00">
        <lanes>
            <lane id="b1i_2" queueing_time="1.00" queueing_length="6.00" queueing_length_experimental="6.00"/>
            <lane id="e4i_2" queueing_time="1.00" queueing_length="6.00" queueing_length_experimental="6.00"/>
            <lane id="h3i_1" queueing_time="1.00" queueing_length="138.31" queueing_length_experimental="0.00"/>
        </lanes>
    </data>
    <data timestep="23.00">
        <lanes>
            <lane id="b1i_2" queueing_time="2.00" queueing_length="6.00" queueing_length_experimental="12.93"/>
            <lane id="e4i_2" queueing_time="2.00" queueing_length="6.00" queueing_length_experimental="6.00"/>
        </lanes>
    </data>
    <data timestep="24.00">
        <lanes>
            <lane id="b1i_2" queueing_time="3.00" queueing_length="6.00" queueing_length_experimental="12.67"/>
            <lane id="e1i_1" queueing_time="0.00" queueing_length="0.00" queueing_length_experimental="6.13"/>
            <lane id="e4i_2" queueing_time="3.00" queueing_length="6.00" queueing_length_experimental="6.00"/>
        </lanes>
    </data>
    <data timestep="25.00">
        <lanes>
            <lane id="b1i_2" queueing_time="4.00" queueing_length="6.00" queueing_length_experimental="12.54"/>
            <lane id="c2i_2" queueing_time="1.00" queueing_length="6.00" queueing_length_experimental="6.00"/>
            <lane id="e1i_1" queueing_time="0.00" queueing_length="0.00" queueing_length_experimental="6.03"/>
            <lane id="j2i_2" queueing_time="1.00" queueing_length="6.00" queueing_length_experimental="6.00"/>
        </lanes>
    </data>
    <data timestep="26.00">
        <lanes>
            <lane id="b1i_2" queueing_time="5.00" queueing_length="12.52" queueing_length_experimental="12.52"/>
            <lane id="c2i_2" queueing_time="2.00" queueing_length="6.00" queueing_length_experimental="6.00"/>
            <lane id="e1i_1" queueing_time="1.00" queueing_length="6.01" queueing_length_experimental="6.01"/>
            <lane id="j2i_2" queueing_time="2.00" queueing_length="6.00" queueing_length_experimental="13.33"/>
        </lanes>
    </data>
    <data timestep="27.00">
        <lanes>
            <lane id="c2i_2" queueing_time="3.00" queueing_length="6.00" queueing_length_experimental="6.00"/>
            <lane id="e1i_1" queueing_time="2.00" queueing_length="6.00" queueing_length_experimental="6.00"/>
            <lane id="j2i_2" queueing_time="3.00" queueing_length="6.00" queueing_length_experimental="12.50"/>
        </lanes>
    </data>
    <data timestep="28.00">
        <lanes>
            <lane id="e1i_1" queueing_time="3.00" queueing_length="6.00" queueing_length_experimental="12.70"/>
        </lanes>
    </data>
    <data timestep="29.00">
        <lanes>
            <lane id="e1i_1" queueing_time="4.00" queueing_length="6.00" queueing_length_experimental="12.56"/>
            <lane id="e1i_2" queueing_time="1.00" queueing_length="6.00" queueing_length_experimental="6.00"/>
        </lanes>
    </data>
    <data timestep="30.00">
        <lanes>
            <lane id="e1i_1" queueing_time="5.00" queueing_length="12.52" queueing_length_experimental="12.52"/>
            <lane id="e1i_2" queueing_time="2.00" queueing_length="6.00" queueing_length_experimental="6.00"/>
        </lanes>
    </data>
    <data timestep="31.00">
        <lanes/>
    </data>
    <data timestep="32.00">
        <lanes>
            <lane id="b2i_1" queueing_time="1.00" queueing_length="6.02" queueing_length_experimental="6.02"/>
            <lane id="c2i_1" queueing_time="1.00" queueing_length="136.96" queueing_length_experimental="0.00"/>
        </lanes>
    </data>
    <data timestep="33.00">
        <lanes>
            <lane id="b1i_2" queueing_time="1.00" queueing_length="6.01" queueing_length_experimental="6.01"/>
        </lanes>
    </data>
    <data timestep="34.00">
        <lanes>
            <lane id="b1i_2" queueing_time="2.00" queueing_length="6.00" queueing_length_experimental="6.00"/>
        </lanes>
    </data>
    <data timestep="35.00">
        <lanes>
            <lane id="b1i_2" queueing_time="3.00" queueing_length="6.00" queueing_length_experimental="6.00"/>
            <lane id="e1i_2" queueing_time="0.00" queueing_length="0.00" queueing_length_experimental="6.02"/>
        </lanes>
    </data>
    <data timestep="36.00">
        <lanes>
            <lane id="b1i_1" queueing_time="1.00" queueing_length="6.00" queueing_length_experimental="6.00"/>
            <lane id="b1i_2" queueing_time="4.00" queueing_length="6.00" queueing_length_experimental="6.00"/>
            <lane id="h3i_1" queueing_time="1.00" queueing_length="6.00" queueing_length_experimental="6.00"/>
        </lanes>
    </data>
    <data timestep="37.00">
        <lanes>
            <lane id="b1i_1" queueing_time="2.00" queueing_length="6.00" queueing_length_experimental="6.00"/>
            <lane id="b1i_2" queueing_time="5.00" queueing_length="6.00" queueing_length_experimental="6.00"/>
            <lane id="j2i_1" queueing_time="0.00" queueing_length="0.00" queueing_length_experimental="5.00"/>
            <lane id="j3i_1" queueing_time="1.00" queueing_length="136.67" queueing_length_experimental="0.00"/>
        </lanes>
    </data>
    <data timestep="38.00">
        <lanes>
            <lane id="b1i_1" queueing_time="3.00" queueing_length="6.00" queueing_length_experimental="6.00"/>
            <lane id="b1i_2" queueing_time="6.00" queueing_length="6.00" queueing_length_experimental="6.00"/>
            <lane id="j3i_1" queueing_time="2.00" queueing_length="136.67" queueing_length_experimental="0.00"/>
        </lanes>
    </data>
    <data timestep="39.00">
        <lanes>
            <lane id="j3i_1" queueing_time="3.00" queueing_length="136.67" queueing_length_experimental="0.00"/>
        </lanes>
    </data>
    <data timestep="40.00">
        <lanes>
            <lane id="h3i_2" queueing_time="0.00" queueing_length="0.00" queueing_length_experimental="6.22"/>
            <lane id="j3i_1" queueing_time="4.00" queueing_length="136.67" queueing_length_experimental="0.00"/>
        </lanes>
    </data>
    <data timestep="41.00">
        <lanes>
            <lane id="j3i_1" queueing_time="5.00" queueing_length="136.67" queueing_length_experimental="0.00"/>
        </lanes>
    </data>
    <data timestep="42.00">
        <lanes>
            <lane id="j3i_1" queueing_time="6.00" queueing_length="136.67" queueing_length_experimental="0.00"/>
        </lanes>
    </data>
    <data timestep="43.00">
        <lanes>
            <lane id="b1i_2" queueing_time="0.00" queueing_length="0.00" queueing_length_experimental="6.07"/>
            <lane id="j3i_1" queueing_time="7.00" queueing_length="136.67" queueing_length_experimental="0.00"/>
        </lanes>
    </data>
    <data timestep="44.00">
        <lanes>
            <lane id="e1i_2" queueing_time="0.00" queueing_length="0.00" queueing_length_experimental="6.31"/>
            <lane id="f4i_2" queueing_time="0.00" queueing_length="0.00" queueing_length_experimental="5.00"/>
            <lane id="j2i_1" queueing_time="1.00" queueing_length="6.07" queueing_length_experimental="6.07"/>
            <lane id="j3i_1" queueing_time="8.00" queueing_length="136.67" queueing_length_experimental="0.00"/>
        </lanes>
    </data>
    <data timestep="45.00">
        <lanes>
            <lane id="e1i_2" queueing_time="0.00" queueing_length="0.00" queueing_length_experimental="6.08"/>
            <lane id="f4i_2" queueing_time="1.00" queueing_length="5.00" queueing_length_experimental="5.00"/>
            <lane id="j2i_1" queueing_time="2.00" queueing_length="6.02" queueing_length_experimental="6.02"/>
            <lane id="j3i_1" queueing_time="9.00" queueing_length="136.67" queueing_length_experimental="0.00"/>
        </lanes>
    </data>
    <data timestep="46.00">
        <lanes>
            <lane id="e1i_2" queueing_time="1.00" queueing_length="6.02" queueing_length_experimental="6.02"/>
            <lane id="j2i_1" queueing_time="3.00" queueing_length="6.00" queueing_length_experimental="6.00"/>
            <lane id="j3i_2" queueing_time="0.00" queueing_length="0.00" queueing_length_experimental="5.00"/>
        </lanes>
    </data>
    <data timestep="47.00">
        <lanes>
            <lane id="e1i_1" queueing_time="1.00" queueing_length="6.00" queueing_length_experimental="6.00"/>
            <lane id="e1i_2" queueing_time="2.00" queueing_length="6.01" queueing_length_experimental="6.01"/>
            <lane id="j2i_1" queueing_time="4.00" queueing_length="6.00" queueing_length_experimental="6.00"/>
        </lanes>
    </data>
    <data timestep="48.00">
        <lanes>
            <lane id="c2i_2" queueing_time="1.00" queueing_length="6.00" queueing_length_experimental="6.00"/>
            <lane id="e1i_2" queueing_time="3.00" queueing_length="6.00" queueing_length_experimental="6.00"/>
            <lane id="j2i_1" queueing_time="5.00" queueing_length="6.00" queueing_length_experimental="6.00"/>
        </lanes>
    </data>
    <data timestep="49.00">
        <lanes>
            <lane id="c2i_2" queueing_time="2.00" queueing_length="6.00" queueing_length_experimental="6.00"/>
            <lane id="e1i_2" queueing_time="4.00" queueing_length="6.00" queueing_length_experimental="6.00"/>
            <lane id="j2i_1" queueing_time="6.00" queueing_length="6.00" queueing_length_experimental="6.00"/>
        </lanes>
    </data>
    <data timestep="50.00">
        <lanes>
            <lane id="c2i_2" queueing_time="3.00" queueing_length="6.00" queueing_length_experimental="6.00"/>
            <lane id="e1i_2" queueing_time="5.00" queueing_length="6.00" queueing_length_experimental="12.94"/>
            <lane id="e4i_2" queueing_time="0.00" queueing_length="0.00" queueing_length_experimental="6.01"/>
            <lane id="j2i_1" queueing_time="7.00" queueing_length="6.00" queueing_length_experimental="6.00"/>
        </lanes>
    </data>
    <data timestep="51.00">
        <lanes>
            <lane id="e1i_1" queueing_time="1.00" queueing_length="137.25" queueing_length_experimental="0.00"/>
            <lane id="e1i_2" queueing_time="6.00" queueing_length="6.00" queueing_length_experimental="12.51"/>
            <lane id="e4i_2" queueing_time="1.00" queueing_length="6.00" queueing_length_experimental="6.00"/>
            <lane id="g4i_1" queueing_time="0.00" queueing_length="0.00" queueing_length_experimental="6.00"/>
            <lane id="j2i_1" queueing_time="8.00" queueing_length="6.00" queueing_length_experimental="6.00"/>
        </lanes>
    </data>
    <data timestep="52.00">
        <lanes>
            <lane id="e1i_1" queueing_time="2.00" queueing_length="137.25" queueing_length_experimental="0.00"/>
            <lane id="e1i_2" queueing_time="7.00" queueing_length="12.50" queueing_length_experimental="12.50"/>
        </lanes>
    </data>
    <data timestep="53.00">
        <lanes>
            <lane id="b1i_1" queueing_time="1.00" queueing_length="6.00" queueing_length_experimental="6.00"/>
            <lane id="e1i_1" queueing_time="3.00" queueing_length="137.25" queueing_length_experimental="0.00"/>
            <lane id="e1i_2" queueing_time="8.00" queueing_length="12.50" queueing_length_experimental="12.50"/>
        </lanes>
    </data>
    <data timestep="54.00">
        <lanes>
            <lane id="b1i_1" queueing_time="2.00" queueing_length="6.00" queueing_length_experimental="6.00"/>
            <lane id="e1i_1" queueing_time="4.00" queueing_length="137.25" queueing_length_experimental="0.00"/>
            <lane id="e1i_2" queueing_time="9.00" queueing_length="12.50" queueing_length_experimental="12.50"/>
        </lanes>
    </data>
    <data timestep="55.00">
        <lanes>
            <lane id="e1i_1" queueing_time="5.00" queueing_length="137.25" queueing_length_experimental="0.00"/>
            <lane id="e1i_2" queueing_time="10.00" queueing_length="12.50" queueing_length_experimental="12.50"/>
            <lane id="j3i_1" queueing_time="1.00" queueing_length="136.66" queueing_length_experimental="0.00"/>
        </lanes>
    </data>
    <data timestep="56.00">
        <lanes>
            <lane id="e1i_1" queueing_time="6.00" queueing_length="137.25" queueing_length_experimental="0.00"/>
            <lane id="e1i_2" queueing_time="11.00" queueing_length="12.50" queueing_length_experimental="12.50"/>
            <lane id="j3i_1" queueing_time="2.00" queueing_length="136.66" queueing_length_experimental="0.00"/>
        </lanes>
    </data>
    <data timestep="57.00">
        <lanes>
            <lane id="e1i_1" queueing_time="7.00" queueing_length="137.25" queueing_length_experimental="0.00"/>
            <lane id="e1i_2" queueing_time="12.00" queueing_length="12.50" queueing_length_experimental="12.50"/>
            <lane id="j3i_1" queueing_time="3.00" queueing_length="136.66" queueing_length_experimental="0.00"/>
        </lanes>
    </data>
    <data timestep="58.00">
        <lanes>
            <lane id="e1i_1" queueing_time="8.00" queueing_length="137.25" queueing_length_experimental="0.00"/>
            <lane id="g4i_2" queueing_time="1.00" queueing_length="6.00" queueing_length_experimental="6.00"/>
            <lane id="j3i_1" queueing_time="4.00" queueing_length="136.66" queueing_length_experimental="0.00"/>
        </lanes>
    </data>
    <data timestep="59.00">
        <lanes>
            <lane id="e1i_1" queueing_time="9.00" queueing_length="137.25" queueing_length_experimental="0.00"/>
            <lane id="j3i_1" queueing_time="5.00" queueing_length="136.66" queueing_length_experimental="0.00"/>
        </lanes>
    </data>
    <data timestep="60.00">
        <lanes>
            <lane id="e1i_1" queueing_time="10.00" queueing_length="137.25" queueing_length_experimental="0.00"/>
            <lane id="j3i_1" queueing_time="6.00" queueing_length="136.66" queueing_length_experimental="0.00"/>
        </lanes>
    </data>
    <data timestep="61.00">
        <lanes>
            <lane id="c2i_2" queueing_time="0.00" queueing_length="0.00" queueing_length_experimental="5.00"/>
            <lane id="e1i_1" queueing_time="11.00" queueing_length="137.25" queueing_length_experimental="0.00"/>
            <lane id="e4i_1" queueing_time="1.00" queueing_length="6.00" queueing_length_experimental="6.00"/>
            <lane id="j1i_1" queueing_time="1.00" queueing_length="6.00" queueing_length_experimental="6.00"/>
            <lane id="j3i_1" queueing_time="7.00" queueing_length="136.66" queueing_length_experimental="0.00"/>
            <lane id="j3i_2" queueing_time="0.00" queueing_length="0.00" queueing_length_experimental="6.00"/>
        </lanes>
    </data>
    <data timestep="62.00">
        <lanes>
            <lane id="e1i_1" queueing_time="12.00" queueing_length="137.25" queueing_length_experimental="0.00"/>
            <lane id="e4i_1" queueing_time="2.00" queueing_length="6.00" queueing_length_experimental="6.00"/>
            <lane id="f1i_2" queueing_time="0.00" queueing_length="0.00" queueing_length_experimental="5.00"/>
            <lane id="g1i_2" queueing_time="0.00" queueing_length="0.00" queueing_length_experimental="6.44"/>
            <lane id="g3i_2" queueing_time="0.00" queueing_length="0.00" queueing_length_experimental="6.00"/>
            <lane id="j1i_1" queueing_time="2.00" queueing_length="6.00" queueing_length_experimental="6.00"/>
            <lane id="j3i_1" queueing_time="8.00" queueing_length="136.66" queueing_length_experimental="0.00"/>
            <lane id="j3i_2" queueing_time="1.00" queueing_length="6.00" queueing_length_experimental="6.00"/>
        </lanes>
    </data>
    <data timestep="63.00">
        <lanes>
            <lane id="e1i_1" queueing_time="13.00" queueing_length="137.25" queueing_length_experimental="0.00"/>
            <lane id="e4i_1" queueing_time="3.00" queueing_length="6.00" queueing_length_experimental="12.52"/>
            <lane id="f1i_2" queueing_time="1.00" queueing_length="5.00" queueing_length_experimental="5.00"/>
            <lane id="g1i_2" queueing_time="0.00" queueing_length="0.00" queueing_length_experimental="6.21"/>
            <lane id="g3i_2" queueing_time="1.00" queueing_length="6.00" queueing_length_experimental="6.00"/>
            <lane id="j1i_1" queueing_time="3.00" queueing_length="6.00" queueing_length_experimental="6.00"/>
            <lane id="j3i_1" queueing_time="9.00" queueing_length="136.66" queueing_length_experimental="0.00"/>
        </lanes>
    </data>
    <data timestep="64.00">
        <lanes>
            <lane id="e4i_1" queueing_time="4.00" queueing_length="12.51" queueing_length_experimental="12.51"/>
            <lane id="g1i_2" queueing_time="0.00" queueing_length="0.00" queueing_length_experimental="6.03"/>
            <lane id="j1i_1" queueing_time="4.00" queueing_length="6.00" queueing_length_experimental="6.00"/>
            <lane id="j3i_1" queueing_time="10.00" queueing_length="136.66" queueing_length_experimental="0.00"/>
        </lanes>
    </data>
    <data timestep="65.00">
        <lanes>
            <lane id="a1i_2" queueing_time="1.00" queueing_length="6.00" queueing_length_experimental="6.00"/>
            <lane id="c3i_1" queueing_time="0.00" queueing_length="0.00" queueing_length_experimental="5.00"/>
            <lane id="f4i_1" queueing_time="0.00" queueing_length="0.00" queueing_length_experimental="6.12"/>
            <lane id="g1i_2" queueing_time="1.00" queueing_length="6.02" queueing_length_experimental="6.02"/>
            <lane id="j1i_1" queueing_time="5.00" queueing_length="6.00" queueing_length_experimental="6.00"/>
            <lane id="j3i_1" queueing_time="11.00" queueing_length="136.66" queueing_length_experimental="0.00"/>
        </lanes>
    </data>
    <data timestep="66.00">
        <lanes>
            <lane id="c2i_2" queueing_time="0.00" queueing_length="0.00" queueing_length_experimental="6.02"/>
            <lane id="f4i_1" queueing_time="1.00" queueing_length="6.02" queueing_length_experimental="6.02"/>
            <lane id="g1i_2" queueing_time="2.00" queueing_length="6.00" queueing_length_experimental="6.00"/>
            <lane id="j1i_1" queueing_time="6.00" queueing_length="6.00" queueing_length_experimental="6.00"/>
            <lane id="j3i_1" queueing_time="12.00" queueing_length="136.66" queueing_length_experimental="0.00"/>
        </lanes>
    </data>
    <data timestep="67.00">
        <lanes>
            <lane id="c2i_2" queueing_time="1.00" queueing_length="6.01" queueing_length_experimental="6.01"/>
            <lane id="f4i_1" queueing_time="2.00" queueing_length="6.01" queueing_length_experimental="6.01"/>
            <lane id="g1i_2" queueing_time="3.00" queueing_length="6.00" queueing_length_experimental="6.00"/>
            <lane id="g3i_1" queueing_time="0.00" queueing_length="0.00" queueing_length_experimental="6.09"/>
            <lane id="j3i_1" queueing_time="13.00" queueing_length="136.66" queueing_length_experimental="0.00"/>
        </lanes>
    </data>
    <data timestep="68.00">
        <lanes>
            <lane id="c2i_2" queueing_time="2.00" queueing_length="6.00" queueing_length_experimental="6.00"/>
            <lane id="g1i_2" queueing_time="4.00" queueing_length="6.00" queueing_length_experimental="6.00"/>
            <lane id="j3i_1" queueing_time="14.00" queueing_length="136.66" queueing_length_experimental="0.00"/>
        </lanes>
    </data>
    <data timestep="69.00">
        <lanes>
            <lane id="c2i_2" queueing_time="3.00" queueing_length="6.00" queueing_length_experimental="6.00"/>
            <lane id="e3i_1" queueing_time="1.00" queueing_length="6.00" queueing_length_experimental="6.00"/>
            <lane id="g1i_2" queueing_time="5.00" queueing_length="6.00" queueing_length_experimental="6.00"/>
            <lane id="j3i_1" queueing_time="15.00" queueing_length="136.66" queueing_length_experimental="0.00"/>
        </lanes>
    </data>
    <data timestep="70.00">
        <lanes>
            <lane id="a4i_1" queueing_time="1.00" queueing_length="6.00" queueing_length_experimental="6.00"/>
            <lane id="c1i_2" queueing_time="1.00" queueing_length="6.00" queueing_length_experimental="6.00"/>
            <lane id="c2i_2" queueing_time="4.00" queueing_length="6.00" queueing_length_experimental="6.00"/>
            <lane id="e3i_1" queueing_time="2.00" queueing_length="6.00" queueing_length_experimental="6.00"/>
            <lane id="g1i_2" queueing_time="6.00" queueing_length="6.00" queueing_length_experimental="6.00"/>
            <lane id="g4i_2" queueing_time="0.00" queueing_length="0.00" queueing_length_experimental="6.00"/>
            <lane id="j3i_1" queueing_time="16.00" queueing_length="136.66" queueing_length_experimental="0.00"/>
        </lanes>
    </data>
    <data timestep="71.00">
        <lanes>
            <lane id="a2i_1" queueing_time="0.00" queueing_length="0.00" queueing_length_experimental="6.01"/>
            <lane id="c2i_2" queueing_time="5.00" queueing_length="6.00" queueing_length_experimental="6.00"/>
            <lane id="e3i_1" queueing_time="3.00" queueing_length="6.00" queueing_length_experimental="6.00"/>
            <lane id="g1i_2" queueing_time="7.00" queueing_length="6.00" queueing_length_experimental="6.00"/>
            <lane id="g4i_2" queueing_time="1.00" queueing_length="6.00" queueing_length_experimental="6.00"/>
            <lane id="j3i_1" queueing_time="17.00" queueing_length="136.66" queueing_length_experimental="0.00"/>
        </lanes>
    </data>
    <data timestep="72.00">
        <lanes>
            <lane id="a2i_1" queueing_time="1.00" queueing_length="6.00" queueing_length_experimental="6.00"/>
            <lane id="b1i_1" queueing_time="1.00" queueing_length="137.54" queueing_length_experimental="0.00"/>
            <lane id="c2i_2" queueing_time="6.00" queueing_length="6.00" queueing_length_experimental="6.00"/>
            <lane id="g1i_2" queueing_time="8.00" queueing_length="6.00" queueing_length_experimental="6.00"/>
            <lane id="g3i_1" queueing_time="0.00" queueing_length="0.00" queueing_length_experimental="6.11"/>
            <lane id="g4i_2" queueing_time="2.00" queueing_length="6.00" queueing_length_experimental="6.00"/>
            <lane id="j3i_1" queueing_time="18.00" queueing_length="136.66" queueing_length_experimental="0.00"/>
        </lanes>
    </data>
    <data timestep="73.00">
        <lanes>
            <lane id="a2i_1" queueing_time="2.00" queueing_length="6.00" queueing_length_experimental="12.51"/>
            <lane id="a2i_2" queueing_time="0.00" queueing_length="0.00" queueing_length_experimental="5.00"/>
            <lane id="b1i_1" queueing_time="2.00" queueing_length="137.54" queueing_length_experimental="0.00"/>
            <lane id="c2i_2" queueing_time="7.00" queueing_length="6.00" queueing_length_experimental="6.00"/>
            <lane id="d3i_1" queueing_time="0.00" queueing_length="0.00" queueing_length_experimental="5.00"/>
            <lane id="g3i_1" queueing_time="0.00" queueing_length="0.00" queueing_length_experimental="6.00"/>
            <lane id="g4i_2" queueing_time="3.00" queueing_length="6.00" queueing_length_experimental="6.00"/>
            <lane id="j3i_1" queueing_time="19.00" queueing_length="136.66" queueing_length_experimental="0.00"/>
        </lanes>
    </data>
    <data timestep="74.00">
        <lanes>
            <lane id="a2i_1" queueing_time="3.00" queueing_length="12.51" queueing_length_experimental="12.51"/>
            <lane id="a2i_2" queueing_time="0.00" queueing_length="0.00" queueing_length_experimental="5.00"/>
            <lane id="b1i_1" queueing_time="3.00" queueing_length="137.54" queueing_length_experimental="0.00"/>
            <lane id="c2i_2" queueing_time="8.00" queueing_length="6.00" queueing_length_experimental="6.00"/>
            <lane id="f4i_1" queueing_time="0.00" queueing_length="0.00" queueing_length_experimental="6.36"/>
            <lane id="g3i_1" queueing_time="1.00" queueing_length="6.00" queueing_length_experimental="6.00"/>
            <lane id="g4i_2" queueing_time="4.00" queueing_length="6.00" queueing_length_experimental="6.00"/>
            <lane id="j3i_1" queueing_time="20.00" queueing_length="136.66" queueing_length_experimental="0.00"/>
        </lanes>
    </data>
    <data timestep="75.00">
        <lanes>
            <lane id="a2i_1" queueing_time="4.00" queueing_length="12.50" queueing_length_experimental="12.50"/>
            <lane id="a2i_2" queueing_time="0.00" queueing_length="0.00" queueing_length_experimental="5.00"/>
            <lane id="b1i_1" queueing_time="4.00" queueing_length="137.54" queueing_length_experimental="0.00"/>
            <lane id="f4i_1" queueing_time="0.00" queueing_length="0.00" queueing_length_experimental="6.11"/>
            <lane id="g3i_1" queueing_time="2.00" queueing_length="6.00" queueing_length_experimental="6.00"/>
            <lane id="g4i_2" queueing_time="5.00" queueing_length="6.00" queueing_length_experimental="6.00"/>
            <lane id="j3i_1" queueing_time="21.00" queueing_length="136.66" queueing_length_experimental="0.00"/>
        </lanes>
    </data>
    <data timestep="76.00">
        <lanes>
            <lane id="a1i_2" queueing_time="0.00" queueing_length="0.00" queueing_length_experimental="6.07"/>
            <lane id="a2i_1" queueing_time="5.00" queueing_length="12.50" queueing_length_experimental="12.50"/>
            <lane id="b1i_1" queueing_time="5.00" queueing_length="137.54" queueing_length_experimental="0.00"/>
            <lane id="b3i_2" queueing_time="0.00" queueing_length="0.00" queueing_length_experimental="5.00"/>
            <lane id="f3i_2" queueing_time="0.00" queueing_length="0.00" queueing_length_experimental="6.39"/>
            <lane id="f4i_1" queueing_time="0.00" queueing_length="0.00" queueing_length_experimental="6.01"/>
            <lane id="g3i_1" queueing_time="3.00" queueing_length="6.00" queueing_length_experimental="6.00"/>
            <lane id="g4i_2" queueing_time="6.00" queueing_length="6.00" queueing_length_experimental="6.00"/>
            <lane id="j3i_1" queueing_time="22.00" queueing_length="136.66" queueing_length_experimental="0.00"/>
        </lanes>
    </data>
    <data timestep="77.00">
        <lanes>
            <lane id="a1i_2" queueing_time="1.00" queueing_length="6.02" queueing_length_experimental="6.02"/>