<?xml version="1.0" encoding="UTF-8"?>

<!-- generated on 12/12/18 14:31:51 by Eclipse SUMO GUI Version 1.0.0
<configuration xmlns:xsi="http://www.w3.org/2001/XMLSchema-instance" xsi:noNamespaceSchemaLocation="http://sumo.dlr.de/xsd/sumoConfiguration.xsd">

    <input>
        <net-file value="intersection.net.xml"/>
        <route-files value="intersectiontest.rou.xml"/>
    </input>

    <output>
        <queue-output value="queue.xml"/>
        <tripinfo-output value="tripinfo.xml"/>
    </output>

    <time>
        <begin value="0"/>
        <end value="3600"/>
    </time>

    <processing>
        <collision.mingap-factor value="0"/>
        <time-to-teleport value="100"/>
    </processing>

    <traci_server>
        <remote-port value="58720"/>
    </traci_server>

</configuration>
-->

<tripinfos xmlns:xsi="http://www.w3.org/2001/XMLSchema-instance" xsi:noNamespaceSchemaLocation="http://sumo.dlr.de/xsd/tripinfo_file.xsd">
    <tripinfo id="j2i.0" depart="3.00" departLane="j2i_0" departPos="5.10" departSpeed="0.00" departDelay="0.00" arrival="29.00" arrivalLane="j3o_0" arrivalPos="138.65" arrivalSpeed="11.32" duration="26.00" routeLength="277.20" waitingTime="0.00" waitingCount="0" stopTime="0.00" timeLoss="7.06" rerouteNo="0" devices="tripinfo_j2i.0" vType="car" speedFactor="1.08" vaporized=""/>
    <tripinfo id="g3i.0" depart="12.00" departLane="g3i_0" departPos="5.10" departSpeed="0.00" departDelay="0.00" arrival="37.00" arrivalLane="g4o_0" arrivalPos="138.65" arrivalSpeed="12.56" duration="25.00" routeLength="277.20" waitingTime="0.00" waitingCount="0" stopTime="0.00" timeLoss="6.99" rerouteNo="0" devices="tripinfo_g3i.0" vType="car" speedFactor="1.18" vaporized=""/>
    <tripinfo id="b2i.0" depart="1.00" departLane="b2i_0" departPos="5.10" departSpeed="0.00" departDelay="0.00" arrival="38.00" arrivalLane="b1o_2" arrivalPos="138.65" arrivalSpeed="10.80" duration="37.00" routeLength="293.16" waitingTime="4.00" waitingCount="2" stopTime="0.00" timeLoss="16.87" rerouteNo="0" devices="tripinfo_b2i.0" vType="car" speedFactor="1.06" vaporized=""/>
    <tripinfo id="j2i.3" depart="11.00" departLane="j2i_0" departPos="5.10" departSpeed="0.00" departDelay="0.00" arrival="39.00" arrivalLane="j3o_0" arrivalPos="138.65" arrivalSpeed="9.98" duration="28.00" routeLength="277.20" waitingTime="0.00" waitingCount="0" stopTime="0.00" timeLoss="6.69" rerouteNo="0" devices="tripinfo_j2i.3" vType="car" speedFactor="0.95" vaporized=""/>
    <tripinfo id="j2i.4" depart="16.00" departLane="j2i_0" departPos="5.10" departSpeed="0.00" departDelay="0.00" arrival="45.00" arrivalLane="j3o_0" arrivalPos="138.65" arrivalSpeed="9.86" duration="29.00" routeLength="277.20" waitingTime="0.00" waitingCount="0" stopTime="0.00" timeLoss="6.71" rerouteNo="0" devices="tripinfo_j2i.4" vType="car" speedFactor="0.90" vaporized=""/>
    <tripinfo id="e1i.4" depart="12.00" departLane="e1i_0" departPos="5.10" departSpeed="0.00" departDelay="2.00" arrival="46.00" arrivalLane="e4o_2" arrivalPos="138.65" arrivalSpeed="12.60" duration="34.00" routeLength="293.16" waitingTime="2.00" waitingCount="1" stopTime="0.00" timeLoss="15.15" rerouteNo="0" devices="tripinfo_e1i.4" vType="car" speedFactor="1.16" vaporized=""/>
    <tripinfo id="b2i.4" depart="17.00" departLane="b2i_0" departPos="5.10" departSpeed="0.00" departDelay="1.00" arrival="47.00" arrivalLane="b1o_2" arrivalPos="138.65" arrivalSpeed="11.76" duration="30.00" routeLength="293.16" waitingTime="0.00" waitingCount="0" stopTime="0.00" timeLoss="10.64" rerouteNo="0" devices="tripinfo_b2i.4" vType="car" speedFactor="1.10" vaporized=""/>
    <tripinfo id="j2i.6" depart="20.00" departLane="j2i_0" departPos="5.10" departSpeed="0.00" departDelay="2.00" arrival="50.00" arrivalLane="j3o_0" arrivalPos="138.65" arrivalSpeed="8.72" duration="30.00" routeLength="277.20" waitingTime="0.00" waitingCount="0" stopTime="0.00" timeLoss="6.28" rerouteNo="0" devices="tripinfo_j2i.6" vType="car" speedFactor="0.85" vaporized=""/>
    <tripinfo id="g3i.5" depart="24.00" departLane="g3i_0" departPos="5.10" departSpeed="0.00" departDelay="2.00" arrival="51.00" arrivalLane="g4o_0" arrivalPos="138.65" arrivalSpeed="10.77" duration="27.00" routeLength="277.20" waitingTime="0.00" waitingCount="0" stopTime="0.00" timeLoss="7.35" rerouteNo="0" devices="tripinfo_g3i.5" vType="car" speedFactor="1.02" vaporized=""/>
    <tripinfo id="e4i.3" depart="24.00" departLane="e4i_0" departPos="5.10" departSpeed="0.00" departDelay="0.00" arrival="53.00" arrivalLane="e1o_0" arrivalPos="138.65" arrivalSpeed="9.43" duration="29.00" routeLength="277.20" waitingTime="0.00" waitingCount="0" stopTime="0.00" timeLoss="6.86" rerouteNo="0" devices="tripinfo_e4i.3" vType="car" speedFactor="0.91" vaporized=""/>
    <tripinfo id="e1i.6" depart="18.00" departLane="e1i_0" departPos="5.10" departSpeed="0.00" departDelay="0.00" arrival="53.00" arrivalLane="e4o_2" arrivalPos="138.65" arrivalSpeed="10.47" duration="35.00" routeLength="293.16" waitingTime="0.00" waitingCount="0" stopTime="0.00" timeLoss="13.88" rerouteNo="0" devices="tripinfo_e1i.6" vType="car" speedFactor="1.00" vaporized=""/>
    <tripinfo id="b1i.6" depart="24.00" departLane="b1i_0" departPos="5.10" departSpeed="0.00" departDelay="0.00" arrival="54.00" arrivalLane="b2o_0" arrivalPos="138.65" arrivalSpeed="9.11" duration="30.00" routeLength="277.20" waitingTime="0.00" waitingCount="0" stopTime="0.00" timeLoss="6.69" rerouteNo="0" devices="tripinfo_b1i.6" vType="car" speedFactor="0.88" vaporized=""/>
    <tripinfo id="g3i.6" depart="29.00" departLane="g3i_0" departPos="5.10" departSpeed="0.00" departDelay="0.00" arrival="55.00" arrivalLane="g4o_0" arrivalPos="138.65" arrivalSpeed="10.27" duration="26.00" routeLength="277.20" waitingTime="0.00" waitingCount="0" stopTime="0.00" timeLoss="6.10" rerouteNo="0" devices="tripinfo_g3i.6" vType="car" speedFactor="1.01" vaporized=""/>
    <tripinfo id="j3i.6" depart="27.00" departLane="j3i_0" departPos="5.10" departSpeed="0.00" departDelay="6.00" arrival="58.00" arrivalLane="j2o_2" arrivalPos="138.65" arrivalSpeed="10.24" duration="31.00" routeLength="293.16" waitingTime="0.00" waitingCount="0" stopTime="0.00" timeLoss="9.33" rerouteNo="0" devices="tripinfo_j3i.6" vType="car" speedFactor="0.97" vaporized=""/>
    <tripinfo id="e4i.5" depart="31.00" departLane="e4i_0" departPos="5.10" departSpeed="0.00" departDelay="0.00" arrival="58.00" arrivalLane="e1o_0" arrivalPos="138.65" arrivalSpeed="10.31" duration="27.00" routeLength="277.20" waitingTime="0.00" waitingCount="0" stopTime="0.00" timeLoss="6.58" rerouteNo="0" devices="tripinfo_e4i.5" vType="car" speedFactor="0.98" vaporized=""/>
    <tripinfo id="e4i.7" depart="35.00" departLane="e4i_0" departPos="5.10" departSpeed="0.00" departDelay="0.00" arrival="62.00" arrivalLane="e1o_0" arrivalPos="138.65" arrivalSpeed="10.83" duration="27.00" routeLength="277.20" waitingTime="0.00" waitingCount="0" stopTime="0.00" timeLoss="7.41" rerouteNo="0" devices="tripinfo_e4i.7" vType="car" speedFactor="1.01" vaporized=""/>
    <tripinfo id="b2i.7" depart="35.00" departLane="b2i_0" departPos="5.10" departSpeed="0.00" departDelay="2.00" arrival="64.00" arrivalLane="b1o_2" arrivalPos="138.65" arrivalSpeed="11.02" duration="29.00" routeLength="293.16" waitingTime="0.00" waitingCount="0" stopTime="0.00" timeLoss="7.71" rerouteNo="0" devices="tripinfo_b2i.7" vType="car" speedFactor="1.02" vaporized=""/>
    <tripinfo id="g3i.9" depart="35.00" departLane="g3i_0" departPos="5.10" departSpeed="0.00" departDelay="0.00" arrival="64.00" arrivalLane="g4o_0" arrivalPos="138.65" arrivalSpeed="9.63" duration="29.00" routeLength="277.20" waitingTime="0.00" waitingCount="0" stopTime="0.00" timeLoss="6.26" rerouteNo="0" devices="tripinfo_g3i.9" vType="car" speedFactor="0.91" vaporized=""/>
    <tripinfo id="j3i.8" depart="31.00" departLane="j3i_0" departPos="5.10" departSpeed="0.00" departDelay="5.00" arrival="65.00" arrivalLane="j2o_2" arrivalPos="138.65" arrivalSpeed="10.57" duration="34.00" routeLength="293.16" waitingTime="1.00" waitingCount="1" stopTime="0.00" timeLoss="11.59" rerouteNo="0" devices="tripinfo_j3i.8" vType="car" speedFactor="0.97" vaporized=""/>
    <tripinfo id="e4i.9" depart="40.00" departLane="e4i_0" departPos="5.10" departSpeed="0.00" departDelay="1.00" arrival="67.00" arrivalLane="e1o_0" arrivalPos="138.65" arrivalSpeed="10.54" duration="27.00" routeLength="277.20" waitingTime="0.00" waitingCount="0" stopTime="0.00" timeLoss="7.13" rerouteNo="0" devices="tripinfo_e4i.9" vType="car" speedFactor="1.03" vaporized=""/>
    <tripinfo id="g4i.6" depart="45.00" departLane="g4i_0" departPos="5.10" departSpeed="0.00" departDelay="0.00" arrival="72.00" arrivalLane="g3o_0" arrivalPos="138.65" arrivalSpeed="11.79" duration="27.00" routeLength="293.16" waitingTime="0.00" waitingCount="0" stopTime="0.00" timeLoss="8.50" rerouteNo="0" devices="tripinfo_g4i.6" vType="car@g4i.6" speedFactor="1.10" vaporized=""/>
    <tripinfo id="e4i.1" depart="10.00" departLane="e4i_0" departPos="5.10" departSpeed="0.00" departDelay="0.00" arrival="74.00" arrivalLane="f4o_2" arrivalPos="138.65" arrivalSpeed="10.53" duration="64.00" routeLength="791.62" waitingTime="0.00" waitingCount="0" stopTime="0.00" timeLoss="14.43" rerouteNo="0" devices="tripinfo_e4i.1" vType="car@e4i.1" speedFactor="1.02" vaporized=""/>
    <tripinfo id="e1i.3" depart="9.00" departLane="e1i_0" departPos="5.10" departSpeed="0.00" departDelay="2.00" arrival="75.00" arrivalLane="a1o_0" arrivalPos="138.65" arrivalSpeed="11.54" duration="66.00" routeLength="759.70" waitingTime="0.00" waitingCount="0" stopTime="0.00" timeLoss="10.05" rerouteNo="0" devices="tripinfo_e1i.3" vType="car" speedFactor="1.05" vaporized=""/>
    <tripinfo id="g4i.5" depart="42.00" departLane="g4i_0" departPos="5.10" departSpeed="0.00" departDelay="1.00" arrival="76.00" arrivalLane="g3o_2" arrivalPos="138.65" arrivalSpeed="10.24" duration="34.00" routeLength="293.16" waitingTime="1.00" waitingCount="1" stopTime="0.00" timeLoss="12.88" rerouteNo="0" devices="tripinfo_g4i.5" vType="car@g4i.5" speedFactor="1.01" vaporized=""/>
    <tripinfo id="e1i.9" depart="27.00" departLane="e1i_0" departPos="5.10" departSpeed="0.00" departDelay="3.00" arrival="76.00" arrivalLane="e4o_2" arrivalPos="138.65" arrivalSpeed="9.46" duration="49.00" routeLength="293.16" waitingTime="12.00" waitingCount="1" stopTime="0.00" timeLoss="26.02" rerouteNo="0" devices="tripinfo_e1i.9" vType="car@e1i.9" speedFactor="0.91" vaporized=""/>
    <tripinfo id="b2i.9" depart="46.00" departLane="b2i_0" departPos="5.10" departSpeed="0.00" departDelay="0.00" arrival="76.00" arrivalLane="b1o_2" arrivalPos="138.65" arrivalSpeed="11.39" duration="30.00" routeLength="293.16" waitingTime="0.00" waitingCount="0" stopTime="0.00" timeLoss="8.81" rerouteNo="0" devices="tripinfo_b2i.9" vType="car" speedFactor="1.03" vaporized=""/>
    <tripinfo id="b1i.3" depart="14.00" departLane="b1i_0" departPos="5.10" departSpeed="0.00" departDelay="0.00" arrival="78.00" arrivalLane="c2o_0" arrivalPos="138.65" arrivalSpeed="10.13" duration="64.00" routeLength="777.40" waitingTime="0.00" waitingCount="0" stopTime="0.00" timeLoss="12.55" rerouteNo="0" devices="tripinfo_b1i.3" vType="car" speedFactor="0.99" vaporized=""/>
    <tripinfo id="e1i.11" depart="35.00" departLane="e1i_0" departPos="5.10" departSpeed="0.00" departDelay="0.00" arrival="78.00" arrivalLane="e4o_2" arrivalPos="138.65" arrivalSpeed="11.06" duration="43.00" routeLength="293.16" waitingTime="6.00" waitingCount="1" stopTime="0.00" timeLoss="22.84" rerouteNo="0" devices="tripinfo_e1i.11" vType="car@e1i.11" speedFactor="1.06" vaporized=""/>
    <tripinfo id="j3i.10" depart="35.00" departLane="j3i_0" departPos="5.10" departSpeed="0.00" departDelay="0.00" arrival="79.00" arrivalLane="j2o_2" arrivalPos="138.65" arrivalSpeed="11.26" duration="44.00" routeLength="293.16" waitingTime="10.00" waitingCount="2" stopTime="0.00" timeLoss="24.01" rerouteNo="0" devices="tripinfo_j3i.10" vType="car" speedFactor="1.10" vaporized=""/>
    <tripinfo id="j3i.1" depart="10.00" departLane="j3i_0" departPos="5.10" departSpeed="0.00" departDelay="0.00" arrival="80.00" arrivalLane="h3o_0" arrivalPos="138.65" arrivalSpeed="10.31" duration="70.00" routeLength="759.70" waitingTime="0.00" waitingCount="0" stopTime="0.00" timeLoss="10.27" rerouteNo="0" devices="tripinfo_j3i.1" vType="car" speedFactor="0.98" vaporized=""/>
    <tripinfo id="e1i.13" depart="46.00" departLane="e1i_0" departPos="5.10" departSpeed="0.00" departDelay="0.00" arrival="80.00" arrivalLane="e4o_2" arrivalPos="138.65" arrivalSpeed="11.05" duration="34.00" routeLength="293.16" waitingTime="0.00" waitingCount="0" stopTime="0.00" timeLoss="12.85" rerouteNo="0" devices="tripinfo_e1i.13" vType="car@e1i.13" speedFactor="1.02" vaporized=""/>
    <tripinfo id="g4i.0" depart="4.00" departLane="g4i_0" departPos="5.10" departSpeed="0.00" departDelay="0.00" arrival="81.00" arrivalLane="h3o_2" arrivalPos="138.65" arrivalSpeed="8.90" duration="77.00" routeLength="793.36" waitingTime="1.00" waitingCount="1" stopTime="0.00" timeLoss="13.41" rerouteNo="0" devices="tripinfo_g4i.0" vType="car" speedFactor="0.83" vaporized=""/>
    <tripinfo id="e4i.0" depart="4.00" departLane="e4i_0" departPos="5.10" departSpeed="0.00" departDelay="0.00" arrival="81.00" arrivalLane="f4o_2" arrivalPos="138.65" arrivalSpeed="10.79" duration="77.00" routeLength="791.62" waitingTime="6.00" waitingCount="3" stopTime="0.00" timeLoss="25.52" rerouteNo="0" devices="tripinfo_e4i.0" vType="car@e4i.0" speedFactor="1.03" vaporized=""/>
    <tripinfo id="c2i.2" depart="10.00" departLane="c2i_0" departPos="5.10" departSpeed="0.00" departDelay="0.00" arrival="82.00" arrivalLane="j3o_0" arrivalPos="138.65" arrivalSpeed="10.11" duration="72.00" routeLength="777.40" waitingTime="0.00" waitingCount="0" stopTime="0.00" timeLoss="10.49" rerouteNo="0" devices="tripinfo_c2i.2" vType="car@c2i.2" speedFactor="0.94" vaporized=""/>
    <tripinfo id="j3i.2" depart="13.00" departLane="j3i_0" departPos="5.10" departSpeed="0.00" departDelay="0.00" arrival="82.00" arrivalLane="h3o_0" arrivalPos="138.65" arrivalSpeed="12.65" duration="69.00" routeLength="759.70" waitingTime="0.00" waitingCount="0" stopTime="0.00" timeLoss="16.90" rerouteNo="0" devices="tripinfo_j3i.2" vType="car" speedFactor="1.17" vaporized=""/>
    <tripinfo id="c2i.0" depart="3.00" departLane="c2i_0" departPos="5.10" departSpeed="0.00" departDelay="0.00" arrival="84.00" arrivalLane="j3o_1" arrivalPos="138.65" arrivalSpeed="10.99" duration="81.00" routeLength="777.40" waitingTime="6.00" waitingCount="1" stopTime="0.00" timeLoss="22.56" rerouteNo="0" devices="tripinfo_c2i.0" vType="car@c2i.0" speedFactor="1.01" vaporized=""/>
    <tripinfo id="g4i.1" depart="11.00" departLane="g4i_0" departPos="5.10" departSpeed="0.00" departDelay="0.00" arrival="84.00" arrivalLane="f4o_0" arrivalPos="138.65" arrivalSpeed="9.43" duration="73.00" routeLength="759.70" waitingTime="0.00" waitingCount="0" stopTime="0.00" timeLoss="9.84" rerouteNo="0" devices="tripinfo_g4i.1" vType="car" speedFactor="0.92" vaporized=""/>
    <tripinfo id="h3i.0" depart="17.00" departLane="h3i_0" departPos="5.10" departSpeed="0.00" departDelay="0.00" arrival="84.00" arrivalLane="g3o_0" arrivalPos="138.65" arrivalSpeed="11.26" duration="67.00" routeLength="759.70" waitingTime="0.00" waitingCount="0" stopTime="0.00" timeLoss="10.78" rerouteNo="0" devices="tripinfo_h3i.0" vType="car" speedFactor="1.04" vaporized=""/>
    <tripinfo id="a1i.2" depart="22.00" departLane="a1i_0" departPos="5.10" departSpeed="0.00" departDelay="0.00" arrival="87.00" arrivalLane="e1o_2" arrivalPos="138.65" arrivalSpeed="11.84" duration="65.00" routeLength="791.62" waitingTime="0.00" waitingCount="0" stopTime="0.00" timeLoss="15.49" rerouteNo="0" devices="tripinfo_a1i.2" vType="car" speedFactor="1.08" vaporized=""/>
    <tripinfo id="j2i.11" depart="60.00" departLane="j2i_0" departPos="5.10" departSpeed="0.00" departDelay="0.00" arrival="87.00" arrivalLane="j3o_0" arrivalPos="138.65" arrivalSpeed="9.78" duration="27.00" routeLength="277.20" waitingTime="0.00" waitingCount="0" stopTime="0.00" timeLoss="6.32" rerouteNo="0" devices="tripinfo_j2i.11" vType="car" speedFactor="0.97" vaporized=""/>
    <tripinfo id="e4i.14" depart="60.00" departLane="e4i_0" departPos="5.10" departSpeed="0.00" departDelay="0.00" arrival="88.00" arrivalLane="e1o_0" arrivalPos="138.65" arrivalSpeed="10.86" duration="28.00" routeLength="277.20" waitingTime="0.00" waitingCount="0" stopTime="0.00" timeLoss="7.58" rerouteNo="0" devices="tripinfo_e4i.14" vType="car" speedFactor="1.00" vaporized=""/>
    <tripinfo id="j3i.4" depart="20.00" departLane="j3i_0" departPos="5.10" departSpeed="0.00" departDelay="4.00" arrival="88.00" arrivalLane="h3o_0" arrivalPos="138.65" arrivalSpeed="11.16" duration="68.00" routeLength="759.70" waitingTime="0.00" waitingCount="0" stopTime="0.00" timeLoss="11.39" rerouteNo="0" devices="tripinfo_j3i.4" vType="car" speedFactor="1.03" vaporized=""/>
    <tripinfo id="f4i.0" depart="8.00" departLane="f4i_0" departPos="5.10" departSpeed="0.00" departDelay="0.00" arrival="90.00" arrivalLane="e1o_1" arrivalPos="138.65" arrivalSpeed="10.22" duration="82.00" routeLength="777.40" waitingTime="3.00" waitingCount="1" stopTime="0.00" timeLoss="17.72" rerouteNo="0" devices="tripinfo_f4i.0" vType="car" speedFactor="0.93" vaporized=""/>
    <tripinfo id="j3i.5" depart="24.00" departLane="j3i_0" departPos="5.10" departSpeed="0.00" departDelay="5.00" arrival="90.00" arrivalLane="h3o_0" arrivalPos="138.65" arrivalSpeed="12.14" duration="66.00" routeLength="759.70" waitingTime="0.00" waitingCount="0" stopTime="0.00" timeLoss="13.98" rerouteNo="0" devices="tripinfo_j3i.5" vType="car" speedFactor="1.17" vaporized=""/>
    <tripinfo id="e1i.2" depart="8.00" departLane="e1i_0" departPos="5.10" departSpeed="0.00" departDelay="2.00" arrival="90.00" arrivalLane="f4o_2" arrivalPos="138.65" arrivalSpeed="8.58" duration="82.00" routeLength="793.36" waitingTime="5.00" waitingCount="1" stopTime="0.00" timeLoss="20.79" rerouteNo="0" devices="tripinfo_e1i.2" vType="car@e1i.2" speedFactor="0.86" vaporized=""/>
    <tripinfo id="b1i.2" depart="12.00" departLane="b1i_0" departPos="5.10" departSpeed="0.00" departDelay="0.00" arrival="91.00" arrivalLane="a1o_2" arrivalPos="138.65" arrivalSpeed="12.34" duration="79.00" routeLength="791.62" waitingTime="3.00" waitingCount="1" stopTime="0.00" timeLoss="26.85" rerouteNo="0" devices="tripinfo_b1i.2" vType="car@b1i.2" speedFactor="1.13" vaporized=""/>
    <tripinfo id="f4i.1" depart="11.00" departLane="f4i_0" departPos="5.10" departSpeed="0.00" departDelay="1.00" arrival="91.00" arrivalLane="g4o_2" arrivalPos="138.65" arrivalSpeed="10.83" duration="80.00" routeLength="791.62" waitingTime="8.00" waitingCount="1" stopTime="0.00" timeLoss="28.42" rerouteNo="0" devices="tripinfo_f4i.1" vType="car" speedFactor="1.01" vaporized=""/>
    <tripinfo id="e4i.2" depart="11.00" departLane="e4i_0" departPos="5.10" departSpeed="0.00" departDelay="0.00" arrival="91.00" arrivalLane="a1o_0" arrivalPos="138.65" arrivalSpeed="9.05" duration="80.00" routeLength="777.40" waitingTime="0.00" waitingCount="0" stopTime="0.00" timeLoss="11.64" rerouteNo="0" devices="tripinfo_e4i.2" vType="car" speedFactor="0.87" vaporized=""/>
    <tripinfo id="a1i.4" depart="29.00" departLane="a1i_0" departPos="5.10" departSpeed="0.00" departDelay="0.00" arrival="92.00" arrivalLane="b2o_1" arrivalPos="138.65" arrivalSpeed="10.71" duration="63.00" routeLength="777.40" waitingTime="0.00" waitingCount="0" stopTime="0.00" timeLoss="10.39" rerouteNo="0" devices="tripinfo_a1i.4" vType="car" speedFactor="0.98" vaporized=""/>
    <tripinfo id="g3i.4" depart="21.00" departLane="g3i_0" departPos="5.10" departSpeed="0.00" departDelay="0.00" arrival="92.00" arrivalLane="f4o_0" arrivalPos="138.65" arrivalSpeed="11.07" duration="71.00" routeLength="777.40" waitingTime="0.00" waitingCount="0" stopTime="0.00" timeLoss="12.45" rerouteNo="0" devices="tripinfo_g3i.4" vType="car" speedFactor="1.02" vaporized=""/>
    <tripinfo id="j3i.13" depart="59.00" departLane="j3i_0" departPos="5.10" departSpeed="0.00" departDelay="1.00" arrival="94.00" arrivalLane="j2o_1" arrivalPos="138.65" arrivalSpeed="7.76" duration="35.00" routeLength="293.16" waitingTime="0.00" waitingCount="0" stopTime="0.00" timeLoss="6.36" rerouteNo="0" devices="tripinfo_j3i.13" vType="car" speedFactor="0.73" vaporized=""/>
    <tripinfo id="h3i.3" depart="24.00" departLane="h3i_0" departPos="5.10" departSpeed="0.00" departDelay="2.00" arrival="95.00" arrivalLane="j3o_2" arrivalPos="138.65" arrivalSpeed="10.78" duration="71.00" routeLength="791.62" waitingTime="0.00" waitingCount="0" stopTime="0.00" timeLoss="17.76" rerouteNo="0" devices="tripinfo_h3i.3" vType="car@h3i.3" speedFactor="0.99" vaporized=""/>
    <tripinfo id="g4i.8" depart="54.00" departLane="g4i_0" departPos="5.10" departSpeed="0.00" departDelay="0.00" arrival="96.00" arrivalLane="g3o_2" arrivalPos="138.65" arrivalSpeed="10.03" duration="42.00" routeLength="293.16" waitingTime="7.00" waitingCount="1" stopTime="0.00" timeLoss="19.46" rerouteNo="0" devices="tripinfo_g4i.8" vType="car@g4i.8" speedFactor="0.95" vaporized=""/>
    <tripinfo id="e1i.7" depart="21.00" departLane="e1i_0" departPos="5.10" departSpeed="0.00" departDelay="0.00" arrival="96.00" arrivalLane="a1o_0" arrivalPos="138.65" arrivalSpeed="9.04" duration="75.00" routeLength="759.70" waitingTime="0.00" waitingCount="0" stopTime="0.00" timeLoss="9.85" rerouteNo="0" devices="tripinfo_e1i.7" vType="car" speedFactor="0.90" vaporized=""/>
    <tripinfo id="h3i.4" depart="30.00" departLane="h3i_0" departPos="5.10" departSpeed="0.00" departDelay="0.00" arrival="97.00" arrivalLane="j2o_1" arrivalPos="138.65" arrivalSpeed="10.38" duration="67.00" routeLength="793.36" waitingTime="0.00" waitingCount="0" stopTime="0.00" timeLoss="14.32" rerouteNo="0" devices="tripinfo_h3i.4" vType="car" speedFactor="1.00" vaporized=""/>
    <tripinfo id="g4i.3" depart="35.00" departLane="g4i_0" departPos="5.10" departSpeed="0.00" departDelay="0.00" arrival="97.00" arrivalLane="f4o_0" arrivalPos="138.65" arrivalSpeed="11.55" duration="62.00" routeLength="759.70" waitingTime="0.00" waitingCount="0" stopTime="0.00" timeLoss="9.14" rerouteNo="0" devices="tripinfo_g4i.3" vType="car" speedFactor="1.12" vaporized=""/>
    <tripinfo id="c2i.3" depart="13.00" departLane="c2i_0" departPos="5.10" departSpeed="0.00" departDelay="2.00" arrival="98.00" arrivalLane="b2o_2" arrivalPos="138.65" arrivalSpeed="8.32" duration="85.00" routeLength="791.62" waitingTime="2.00" waitingCount="1" stopTime="0.00" timeLoss="14.22" rerouteNo="0" devices="tripinfo_c2i.3" vType="car@c2i.3" speedFactor="0.83" vaporized=""/>
    <tripinfo id="f4i.5" depart="26.00" departLane="f4i_0" departPos="5.10" departSpeed="0.00" departDelay="1.00" arrival="99.00" arrivalLane="g3o_1" arrivalPos="138.65" arrivalSpeed="10.67" duration="73.00" routeLength="793.36" waitingTime="2.00" waitingCount="1" stopTime="0.00" timeLoss="21.48" rerouteNo="0" devices="tripinfo_f4i.5" vType="car" speedFactor="1.02" vaporized=""/>
    <tripinfo id="g4i.9" depart="61.00" departLane="g4i_0" departPos="5.10" departSpeed="0.00" departDelay="0.00" arrival="99.00" arrivalLane="g3o_2" arrivalPos="138.65" arrivalSpeed="10.55" duration="38.00" routeLength="293.16" waitingTime="1.00" waitingCount="1" stopTime="0.00" timeLoss="17.14" rerouteNo="0" devices="tripinfo_g4i.9" vType="car@g4i.9" speedFactor="1.00" vaporized=""/>
    <tripinfo id="j2i.16" depart="77.00" departLane="j2i_0" departPos="5.10" departSpeed="0.00" departDelay="0.00" arrival="104.00" arrivalLane="j3o_0" arrivalPos="138.65" arrivalSpeed="11.48" duration="27.00" routeLength="277.20" waitingTime="0.00" waitingCount="0" stopTime="0.00" timeLoss="7.41" rerouteNo="0" devices="tripinfo_j2i.16" vType="car" speedFactor="1.08" vaporized=""/>
    <tripinfo id="c2i.8" depart="38.00" departLane="c2i_0" departPos="5.10" departSpeed="0.00" departDelay="0.00" arrival="105.00" arrivalLane="j2o_0" arrivalPos="138.65" arrivalSpeed="10.63" duration="67.00" routeLength="759.70" waitingTime="0.00" waitingCount="0" stopTime="0.00" timeLoss="9.88" rerouteNo="0" devices="tripinfo_c2i.8" vType="car" speedFactor="1.01" vaporized=""/>
    <tripinfo id="b2i.12" depart="64.00" departLane="b2i_0" departPos="5.10" departSpeed="0.00" departDelay="2.00" arrival="106.00" arrivalLane="b1o_2" arrivalPos="138.65" arrivalSpeed="9.51" duration="42.00" routeLength="293.16" waitingTime="2.00" waitingCount="1" stopTime="0.00" timeLoss="19.31" rerouteNo="0" devices="tripinfo_b2i.12" vType="car" speedFactor="0.93" vaporized=""/>
    <tripinfo id="a1i.6" depart="33.00" departLane="a1i_0" departPos="5.10" departSpeed="0.00" departDelay="1.00" arrival="107.00" arrivalLane="e4o_1" arrivalPos="138.65" arrivalSpeed="10.66" duration="74.00" routeLength="793.36" waitingTime="1.00" waitingCount="1" stopTime="0.00" timeLoss="20.65" rerouteNo="0" devices="tripinfo_a1i.6" vType="car@a1i.6" speedFactor="1.00" vaporized=""/>
    <tripinfo id="b1i.4" depart="17.00" departLane="b1i_0" departPos="5.10" departSpeed="0.00" departDelay="0.00" arrival="107.00" arrivalLane="a1o_2" arrivalPos="138.65" arrivalSpeed="9.77" duration="90.00" routeLength="791.62" waitingTime="6.00" waitingCount="1" stopTime="0.00" timeLoss="27.13" rerouteNo="0" devices="tripinfo_b1i.4" vType="car" speedFactor="0.96" vaporized=""/>
    <tripinfo id="g3i.18" depart="80.00" departLane="g3i_0" departPos="5.10" departSpeed="0.00" departDelay="0.00" arrival="108.00" arrivalLane="g4o_0" arrivalPos="138.65" arrivalSpeed="9.98" duration="28.00" routeLength="277.20" waitingTime="0.00" waitingCount="0" stopTime="0.00" timeLoss="6.22" rerouteNo="0" devices="tripinfo_g3i.18" vType="car" speedFactor="0.93" vaporized=""/>
    <tripinfo id="h3i.5" depart="33.00" departLane="h3i_0" departPos="5.10" departSpeed="0.00" departDelay="0.00" arrival="108.00" arrivalLane="g3o_0" arrivalPos="138.65" arrivalSpeed="9.03" duration="75.00" routeLength="759.70" waitingTime="0.00" waitingCount="0" stopTime="0.00" timeLoss="9.37" rerouteNo="0" devices="tripinfo_h3i.5" vType="car" speedFactor="0.89" vaporized=""/>
    <tripinfo id="j2i.18" depart="82.00" departLane="j2i_0" departPos="5.10" departSpeed="0.00" departDelay="1.00" arrival="108.00" arrivalLane="j3o_0" arrivalPos="138.65" arrivalSpeed="10.57" duration="26.00" routeLength="277.20" waitingTime="0.00" waitingCount="0" stopTime="0.00" timeLoss="6.52" rerouteNo="0" devices="tripinfo_j2i.18" vType="car" speedFactor="1.03" vaporized=""/>
    <tripinfo id="a1i.5" depart="32.00" departLane="a1i_0" departPos="5.10" departSpeed="0.00" departDelay="1.00" arrival="110.00" arrivalLane="e1o_2" arrivalPos="138.65" arrivalSpeed="10.38" duration="78.00" routeLength="791.62" waitingTime="2.00" waitingCount="1" stopTime="0.00" timeLoss="23.54" rerouteNo="0" devices="tripinfo_a1i.5" vType="car@a1i.5" speedFactor="0.97" vaporized=""/>
    <tripinfo id="b2i.16" depart="79.00" departLane="b2i_0" departPos="5.10" departSpeed="0.00" departDelay="0.00" arrival="111.00" arrivalLane="b1o_2" arrivalPos="138.65" arrivalSpeed="9.84" duration="32.00" routeLength="293.16" waitingTime="0.00" waitingCount="0" stopTime="0.00" timeLoss="7.79" rerouteNo="0" devices="tripinfo_b2i.16" vType="car" speedFactor="0.89" vaporized=""/>
    <tripinfo id="g4i.7" depart="48.00" departLane="g4i_0" departPos="5.10" departSpeed="0.00" departDelay="0.00" arrival="112.00" arrivalLane="h3o_0" arrivalPos="138.65" arrivalSpeed="10.95" duration="64.00" routeLength="793.36" waitingTime="0.00" waitingCount="0" stopTime="0.00" timeLoss="13.36" rerouteNo="0" devices="tripinfo_g4i.7" vType="car@g4i.7" speedFactor="1.01" vaporized=""/>
    <tripinfo id="h3i.8" depart="44.00" departLane="h3i_0" departPos="5.10" departSpeed="0.00" departDelay="0.00" arrival="112.00" arrivalLane="g3o_0" arrivalPos="138.65" arrivalSpeed="10.98" duration="68.00" routeLength="759.70" waitingTime="0.00" waitingCount="0" stopTime="0.00" timeLoss="9.47" rerouteNo="0" devices="tripinfo_h3i.8" vType="car" speedFactor="0.99" vaporized=""/>
    <tripinfo id="e4i.21" depart="88.00" departLane="e4i_0" departPos="5.10" departSpeed="0.00" departDelay="2.00" arrival="114.00" arrivalLane="e1o_0" arrivalPos="138.65" arrivalSpeed="11.72" duration="26.00" routeLength="277.20" waitingTime="0.00" waitingCount="0" stopTime="0.00" timeLoss="7.21" rerouteNo="0" devices="tripinfo_e4i.21" vType="car" speedFactor="1.10" vaporized=""/>
    <tripinfo id="e1i.20" depart="85.00" departLane="e1i_0" departPos="5.10" departSpeed="0.00" departDelay="0.00" arrival="116.00" arrivalLane="e4o_2" arrivalPos="138.65" arrivalSpeed="10.87" duration="31.00" routeLength="293.16" waitingTime="0.00" waitingCount="0" stopTime="0.00" timeLoss="9.43" rerouteNo="0" devices="tripinfo_e1i.20" vType="car" speedFactor="0.98" vaporized=""/>
    <tripinfo id="c2i.1" depart="7.00" departLane="c2i_0" departPos="5.10" departSpeed="0.00" departDelay="0.00" arrival="116.00" arrivalLane="b2o_2" arrivalPos="138.65" arrivalSpeed="10.54" duration="109.00" routeLength="791.62" waitingTime="20.00" waitingCount="3" stopTime="0.00" timeLoss="50.23" rerouteNo="0" devices="tripinfo_c2i.1" vType="car@c2i.1" speedFactor="1.03" vaporized=""/>
    <tripinfo id="b1i.15" depart="88.00" departLane="b1i_0" departPos="5.10" departSpeed="0.00" departDelay="3.00" arrival="116.00" arrivalLane="b2o_0" arrivalPos="138.65" arrivalSpeed="10.52" duration="28.00" routeLength="277.20" waitingTime="0.00" waitingCount="0" stopTime="0.00" timeLoss="6.50" rerouteNo="0" devices="tripinfo_b1i.15" vType="car" speedFactor="0.96" vaporized=""/>