<?xml version="1.0" encoding="UTF-8"?>

<!-- generated on 07/23/19 18:01:17 by Eclipse SUMO GUI Version 1.2.0
<configuration xmlns:xsi="http://www.w3.org/2001/XMLSchema-instance" xsi:noNamespaceSchemaLocation="http://sumo.dlr.de/xsd/sumoConfiguration.xsd">

    <input>
        <net-file value="../cfg/intersection.net.xml"/>
        <route-files value="../cfg/intersectiontest.rou.xml"/>
    </input>

    <output>
        <queue-output value="../output/queue.xml"/>
        <tripinfo-output value="../output/tripinfo.xml"/>
    </output>

    <time>
        <begin value="0"/>
        <end value="3600"/>
    </time>

    <processing>
        <collision.mingap-factor value="0"/>
        <time-to-teleport value="100"/>
    </processing>

    <traci_server>
        <remote-port value="49959"/>
    </traci_server>

</configuration>
-->

<queue-export xmlns:xsi="http://www.w3.org/2001/XMLSchema-instance" xsi:noNamespaceSchemaLocation="http://sumo.dlr.de/xsd/queue_file.xsd">
    <data timestep="0.00">
        <lanes/>
    </data>
    <data timestep="1.00">
        <lanes/>
    </data>
    <data timestep="2.00">
        <lanes>
            <lane id="a3i_1" queueing_time="1.00" queueing_length="134.00" queueing_length_experimental="0.00"/>
        </lanes>
    </data>
    <data timestep="3.00">
        <lanes/>
    </data>
    <data timestep="4.00">
        <lanes/>
    </data>
    <data timestep="5.00">
        <lanes/>
    </data>
    <data timestep="6.00">
        <lanes/>
    </data>
    <data timestep="7.00">
        <lanes/>
    </data>
    <data timestep="8.00">
        <lanes/>
    </data>
    <data timestep="9.00">
        <lanes/>
    </data>
    <data timestep="10.00">
        <lanes/>
    </data>
    <data timestep="11.00">
        <lanes/>
    </data>
    <data timestep="12.00">
        <lanes/>
    </data>
    <data timestep="13.00">
        <lanes/>
    </data>
    <data timestep="14.00">
        <lanes/>
    </data>
    <data timestep="15.00">
        <lanes/>
    </data>
    <data timestep="16.00">
        <lanes>
            <lane id="a3i_1" queueing_time="1.00" queueing_length="6.00" queueing_length_experimental="6.00"/>
        </lanes>
    </data>
    <data timestep="17.00">
        <lanes/>
    </data>
    <data timestep="18.00">
        <lanes/>
    </data>
    <data timestep="19.00">
        <lanes>
            <lane id="a1i_2" queueing_time="0.00" queueing_length="0.00" queueing_length_experimental="6.05"/>
        </lanes>
    </data>
    <data timestep="20.00">
        <lanes>
            <lane id="a1i_1" queueing_time="0.00" queueing_length="0.00" queueing_length_experimental="6.21"/>
            <lane id="a1i_2" queueing_time="1.00" queueing_length="6.01" queueing_length_experimental="6.01"/>
            <lane id="a2i_2" queueing_time="0.00" queueing_length="0.00" queueing_length_experimental="6.01"/>
        </lanes>
    </data>
</queue-export>
