<?xml version="1.0" encoding="UTF-8"?>

<!-- generated on 06/13/19 20:51:30 by Eclipse SUMO GUI Version 1.2.0
<configuration xmlns:xsi="http://www.w3.org/2001/XMLSchema-instance" xsi:noNamespaceSchemaLocation="http://sumo.dlr.de/xsd/sumoConfiguration.xsd">

    <input>
        <net-file value="../cfg/intersection.net.xml"/>
        <route-files value="../cfg/intersectiontest.rou.xml"/>
    </input>

    <output>
        <queue-output value="../output/queue.xml"/>
        <tripinfo-output value="../output/tripinfo.xml"/>
    </output>

    <time>
        <begin value="0"/>
        <end value="3600"/>
    </time>

    <processing>
        <collision.mingap-factor value="0"/>
        <time-to-teleport value="100"/>
    </processing>

    <traci_server>
        <remote-port value="51344"/>
    </traci_server>

</configuration>
-->

<queue-export xmlns:xsi="http://www.w3.org/2001/XMLSchema-instance" xsi:noNamespaceSchemaLocation="http://sumo.dlr.de/xsd/queue_file.xsd">
    <data timestep="0.00">
        <lanes/>
    </data>
    <data timestep="1.00">
        <lanes/>
    </data>
    <data timestep="2.00">
        <lanes>
            <lane id="a3i_1" queueing_time="1.00" queueing_length="134.00" queueing_length_experimental="0.00"/>
        </lanes>
    </data>
    <data timestep="3.00">
        <lanes/>
    </data>
    <data timestep="4.00">
        <lanes/>
    </data>
    <data timestep="5.00">
        <lanes/>
    </data>
    <data timestep="6.00">
        <lanes/>
    </data>
    <data timestep="7.00">
        <lanes/>
    </data>
    <data timestep="8.00">
        <lanes/>
    </data>
    <data timestep="9.00">
        <lanes/>
    </data>
    <data timestep="10.00">
        <lanes/>
    </data>
    <data timestep="11.00">
        <lanes/>
    </data>
    <data timestep="12.00">
        <lanes/>
    </data>
    <data timestep="13.00">
        <lanes/>
    </data>
    <data timestep="14.00">
        <lanes/>
    </data>
    <data timestep="15.00">
        <lanes/>
    </data>
    <data timestep="16.00">
        <lanes>
            <lane id="a3i_1" queueing_time="1.00" queueing_length="6.00" queueing_length_experimental="6.00"/>
        </lanes>
    </data>
    <data timestep="17.00">
        <lanes/>
    </data>
    <data timestep="18.00">
        <lanes/>
    </data>
    <data timestep="19.00">
        <lanes>
            <lane id="a1i_2" queueing_time="0.00" queueing_length="0.00" queueing_length_experimental="6.05"/>
        </lanes>
    </data>
    <data timestep="20.00">
        <lanes>
            <lane id="a1i_1" queueing_time="0.00" queueing_length="0.00" queueing_length_experimental="6.21"/>
            <lane id="a1i_2" queueing_time="1.00" queueing_length="6.01" queueing_length_experimental="6.01"/>
            <lane id="a2i_2" queueing_time="0.00" queueing_length="0.00" queueing_length_experimental="6.01"/>
        </lanes>
    </data>
    <data timestep="21.00">
        <lanes>
            <lane id="a1i_1" queueing_time="0.00" queueing_length="0.00" queueing_length_experimental="6.06"/>
            <lane id="a1i_2" queueing_time="2.00" queueing_length="6.00" queueing_length_experimental="6.00"/>
            <lane id="a4i_2" queueing_time="0.00" queueing_length="0.00" queueing_length_experimental="6.04"/>
        </lanes>
    </data>
    <data timestep="22.00">
        <lanes>
            <lane id="a1i_1" queueing_time="1.00" queueing_length="6.02" queueing_length_experimental="6.02"/>
            <lane id="a1i_2" queueing_time="3.00" queueing_length="6.00" queueing_length_experimental="6.00"/>
            <lane id="a4i_2" queueing_time="1.00" queueing_length="6.01" queueing_length_experimental="12.73"/>
        </lanes>
    </data>
    <data timestep="23.00">
        <lanes>
            <lane id="a1i_1" queueing_time="2.00" queueing_length="6.00" queueing_length_experimental="6.00"/>
            <lane id="a1i_2" queueing_time="4.00" queueing_length="6.00" queueing_length_experimental="12.71"/>
            <lane id="a4i_2" queueing_time="2.00" queueing_length="6.00" queueing_length_experimental="12.61"/>
        </lanes>
    </data>
    <data timestep="24.00">
        <lanes>
            <lane id="a1i_1" queueing_time="3.00" queueing_length="6.00" queueing_length_experimental="12.74"/>
            <lane id="a1i_2" queueing_time="5.00" queueing_length="6.00" queueing_length_experimental="12.57"/>
            <lane id="a2i_2" queueing_time="0.00" queueing_length="0.00" queueing_length_experimental="5.61"/>
            <lane id="a4i_2" queueing_time="3.00" queueing_length="12.51" queueing_length_experimental="12.51"/>
        </lanes>
    </data>
    <data timestep="25.00">
        <lanes>
            <lane id="a1i_1" queueing_time="4.00" queueing_length="6.00" queueing_length_experimental="12.53"/>
            <lane id="a1i_2" queueing_time="6.00" queueing_length="12.51" queueing_length_experimental="12.51"/>
            <lane id="a2i_2" queueing_time="1.00" queueing_length="5.61" queueing_length_experimental="5.61"/>
            <lane id="a4i_2" queueing_time="4.00" queueing_length="12.51" queueing_length_experimental="12.51"/>
        </lanes>
    </data>
    <data timestep="26.00">
        <lanes>
            <lane id="a1i_2" queueing_time="7.00" queueing_length="12.50" queueing_length_experimental="19.39"/>
            <lane id="a2i_2" queueing_time="2.00" queueing_length="5.61" queueing_length_experimental="5.61"/>
            <lane id="a3i_2" queueing_time="0.00" queueing_length="0.00" queueing_length_experimental="6.00"/>
        </lanes>
    </data>
    <data timestep="27.00">
        <lanes>
            <lane id="a1i_2" queueing_time="8.00" queueing_length="12.50" queueing_length_experimental="19.05"/>
            <lane id="a2i_2" queueing_time="3.00" queueing_length="5.61" queueing_length_experimental="5.61"/>
            <lane id="a3i_2" queueing_time="1.00" queueing_length="6.00" queueing_length_experimental="6.00"/>
        </lanes>
    </data>
    <data timestep="28.00">
        <lanes>
            <lane id="a1i_2" queueing_time="9.00" queueing_length="19.01" queueing_length_experimental="19.01"/>
            <lane id="a2i_2" queueing_time="4.00" queueing_length="5.61" queueing_length_experimental="5.61"/>
            <lane id="a3i_2" queueing_time="2.00" queueing_length="6.00" queueing_length_experimental="12.51"/>
        </lanes>
    </data>
    <data timestep="29.00">
        <lanes>
            <lane id="a1i_2" queueing_time="10.00" queueing_length="19.00" queueing_length_experimental="19.00"/>
            <lane id="a2i_2" queueing_time="5.00" queueing_length="5.61" queueing_length_experimental="5.61"/>
            <lane id="a3i_2" queueing_time="3.00" queueing_length="12.50" queueing_length_experimental="12.50"/>
        </lanes>
    </data>
    <data timestep="30.00">
        <lanes>
            <lane id="a1i_2" queueing_time="11.00" queueing_length="19.00" queueing_length_experimental="19.00"/>
            <lane id="a2i_2" queueing_time="6.00" queueing_length="5.61" queueing_length_experimental="5.61"/>
            <lane id="a3i_2" queueing_time="4.00" queueing_length="12.50" queueing_length_experimental="12.50"/>
        </lanes>
    </data>
    <data timestep="31.00">
        <lanes>
            <lane id="a2i_2" queueing_time="7.00" queueing_length="5.61" queueing_length_experimental="5.61"/>
        </lanes>
    </data>
    <data timestep="32.00">
        <lanes>
            <lane id="a2i_2" queueing_time="8.00" queueing_length="5.61" queueing_length_experimental="5.61"/>
            <lane id="a3o_1" queueing_time="1.00" queueing_length="139.50" queueing_length_experimental="0.00"/>
        </lanes>
    </data>
    <data timestep="33.00">
        <lanes>
            <lane id="a2i_2" queueing_time="9.00" queueing_length="5.61" queueing_length_experimental="5.61"/>
        </lanes>
    </data>
    <data timestep="34.00">
        <lanes>
            <lane id="a1i_2" queueing_time="0.00" queueing_length="0.00" queueing_length_experimental="5.00"/>
            <lane id="a2i_1" queueing_time="0.00" queueing_length="0.00" queueing_length_experimental="6.00"/>
            <lane id="a2i_2" queueing_time="10.00" queueing_length="5.61" queueing_length_experimental="5.61"/>
            <lane id="a4i_1" queueing_time="1.00" queueing_length="6.00" queueing_length_experimental="6.00"/>
        </lanes>
    </data>
    <data timestep="35.00">
        <lanes>
            <lane id="a1i_2" queueing_time="0.00" queueing_length="0.00" queueing_length_experimental="5.00"/>
            <lane id="a2i_2" queueing_time="11.00" queueing_length="5.61" queueing_length_experimental="5.61"/>
            <lane id="a4i_1" queueing_time="2.00" queueing_length="6.00" queueing_length_experimental="6.00"/>
        </lanes>
    </data>
    <data timestep="36.00">
        <lanes>
            <lane id="a2i_2" queueing_time="12.00" queueing_length="5.61" queueing_length_experimental="5.61"/>
            <lane id="a4i_1" queueing_time="3.00" queueing_length="6.00" queueing_length_experimental="6.00"/>
        </lanes>
    </data>
    <data timestep="37.00">
        <lanes>
            <lane id="a2i_2" queueing_time="13.00" queueing_length="5.61" queueing_length_experimental="5.61"/>
            <lane id="a4i_1" queueing_time="4.00" queueing_length="6.00" queueing_length_experimental="6.00"/>
        </lanes>
    </data>
    <data timestep="38.00">
        <lanes>
            <lane id="a2i_2" queueing_time="14.00" queueing_length="5.61" queueing_length_experimental="5.61"/>
            <lane id="a3i_2" queueing_time="0.00" queueing_length="0.00" queueing_length_experimental="6.00"/>
            <lane id="a4i_1" queueing_time="5.00" queueing_length="6.00" queueing_length_experimental="6.00"/>
        </lanes>
    </data>
    <data timestep="39.00">
        <lanes>
            <lane id="a2i_2" queueing_time="15.00" queueing_length="5.61" queueing_length_experimental="5.61"/>
            <lane id="a3i_2" queueing_time="1.00" queueing_length="6.00" queueing_length_experimental="6.00"/>
            <lane id="a4i_1" queueing_time="6.00" queueing_length="6.00" queueing_length_experimental="12.58"/>
        </lanes>
    </data>
</queue-export>
