<?xml version="1.0" encoding="UTF-8"?>

<!-- generated on 06/13/19 22:40:03 by Eclipse SUMO GUI Version 1.2.0
<configuration xmlns:xsi="http://www.w3.org/2001/XMLSchema-instance" xsi:noNamespaceSchemaLocation="http://sumo.dlr.de/xsd/sumoConfiguration.xsd">

    <input>
        <net-file value="../cfg/intersection.net.xml"/>
        <route-files value="../cfg/intersectiontest.rou.xml"/>
    </input>

    <output>
        <queue-output value="../output/queue.xml"/>
        <tripinfo-output value="../output/tripinfo.xml"/>
    </output>

    <time>
        <begin value="0"/>
        <end value="3600"/>
    </time>

    <processing>
        <collision.mingap-factor value="0"/>
        <time-to-teleport value="100"/>
    </processing>

    <traci_server>
        <remote-port value="53203"/>
    </traci_server>

</configuration>
-->

<queue-export xmlns:xsi="http://www.w3.org/2001/XMLSchema-instance" xsi:noNamespaceSchemaLocation="http://sumo.dlr.de/xsd/queue_file.xsd">
    <data timestep="0.00">
        <lanes/>
    </data>
    <data timestep="1.00">
        <lanes/>
    </data>
    <data timestep="2.00">
        <lanes/>
    </data>
    <data timestep="3.00">
        <lanes>
            <lane id="b2i_1" queueing_time="1.00" queueing_length="137.00" queueing_length_experimental="0.00"/>
        </lanes>
    </data>
    <data timestep="4.00">
        <lanes/>
    </data>
    <data timestep="5.00">
        <lanes/>
    </data>
    <data timestep="6.00">
        <lanes>
            <lane id="e4i_1" queueing_time="1.00" queueing_length="136.71" queueing_length_experimental="0.00"/>
            <lane id="g4i_1" queueing_time="1.00" queueing_length="137.02" queueing_length_experimental="0.00"/>
        </lanes>
    </data>
    <data timestep="7.00">
        <lanes/>
    </data>
    <data timestep="8.00">
        <lanes/>
    </data>
    <data timestep="9.00">
        <lanes>
            <lane id="a1i_1" queueing_time="1.00" queueing_length="137.07" queueing_length_experimental="0.00"/>
            <lane id="c2i_1" queueing_time="1.00" queueing_length="137.02" queueing_length_experimental="0.00"/>
            <lane id="j2i_2" queueing_time="1.00" queueing_length="137.52" queueing_length_experimental="0.00"/>
        </lanes>
    </data>
    <data timestep="10.00">
        <lanes>
            <lane id="j2i_2" queueing_time="2.00" queueing_length="137.52" queueing_length_experimental="0.00"/>
        </lanes>
    </data>
    <data timestep="11.00">
        <lanes>
            <lane id="j2i_1" queueing_time="1.00" queueing_length="134.29" queueing_length_experimental="0.00"/>
        </lanes>
    </data>
    <data timestep="12.00">
        <lanes>
            <lane id="j2i_1" queueing_time="2.00" queueing_length="134.29" queueing_length_experimental="0.00"/>
        </lanes>
    </data>
    <data timestep="13.00">
        <lanes>
            <lane id="j2i_1" queueing_time="3.00" queueing_length="134.29" queueing_length_experimental="0.00"/>
        </lanes>
    </data>
    <data timestep="14.00">
        <lanes>
            <lane id="j2i_1" queueing_time="4.00" queueing_length="134.29" queueing_length_experimental="0.00"/>
        </lanes>
    </data>
    <data timestep="15.00">
        <lanes>
            <lane id="j2i_1" queueing_time="5.00" queueing_length="134.29" queueing_length_experimental="0.00"/>
        </lanes>
    </data>
    <data timestep="16.00">
        <lanes>
            <lane id="j2i_1" queueing_time="6.00" queueing_length="134.29" queueing_length_experimental="0.00"/>
        </lanes>
    </data>
    <data timestep="17.00">
        <lanes>
            <lane id="j2i_1" queueing_time="7.00" queueing_length="134.29" queueing_length_experimental="0.00"/>
        </lanes>
    </data>
    <data timestep="18.00">
        <lanes>
            <lane id="j2i_1" queueing_time="8.00" queueing_length="134.29" queueing_length_experimental="0.00"/>
        </lanes>
    </data>
    <data timestep="19.00">
        <lanes>
            <lane id="b2i_2" queueing_time="1.00" queueing_length="6.00" queueing_length_experimental="6.00"/>
            <lane id="j2i_1" queueing_time="9.00" queueing_length="134.29" queueing_length_experimental="0.00"/>
        </lanes>
    </data>
    <data timestep="20.00">
        <lanes>
            <lane id="b2i_2" queueing_time="2.00" queueing_length="6.00" queueing_length_experimental="6.00"/>
            <lane id="j2i_1" queueing_time="10.00" queueing_length="134.29" queueing_length_experimental="0.00"/>
        </lanes>
    </data>
    <data timestep="21.00">
        <lanes>
            <lane id="b1i_2" queueing_time="1.00" queueing_length="6.00" queueing_length_experimental="6.00"/>
            <lane id="b2i_2" queueing_time="3.00" queueing_length="6.00" queueing_length_experimental="6.00"/>
            <lane id="j2i_2" queueing_time="11.00" queueing_length="134.29" queueing_length_experimental="0.00"/>
        </lanes>
    </data>
    <data timestep="22.00">
        <lanes>
            <lane id="b1i_2" queueing_time="2.00" queueing_length="6.00" queueing_length_experimental="6.00"/>
            <lane id="e4i_2" queueing_time="1.00" queueing_length="6.00" queueing_length_experimental="6.00"/>
            <lane id="h3i_1" queueing_time="1.00" queueing_length="137.79" queueing_length_experimental="0.00"/>
            <lane id="j2i_2" queueing_time="12.00" queueing_length="134.29" queueing_length_experimental="0.00"/>
        </lanes>
    </data>
    <data timestep="23.00">
        <lanes>
            <lane id="b1i_2" queueing_time="3.00" queueing_length="6.00" queueing_length_experimental="6.00"/>
            <lane id="e1i_1" queueing_time="0.00" queueing_length="0.00" queueing_length_experimental="6.78"/>
            <lane id="e4i_2" queueing_time="2.00" queueing_length="6.00" queueing_length_experimental="6.00"/>
            <lane id="j2i_2" queueing_time="13.00" queueing_length="134.29" queueing_length_experimental="0.00"/>
        </lanes>
    </data>
    <data timestep="24.00">
        <lanes>
            <lane id="b1i_2" queueing_time="4.00" queueing_length="6.00" queueing_length_experimental="12.54"/>
            <lane id="e1i_1" queueing_time="0.00" queueing_length="0.00" queueing_length_experimental="6.28"/>
            <lane id="e4i_2" queueing_time="3.00" queueing_length="6.00" queueing_length_experimental="6.00"/>
            <lane id="j2i_2" queueing_time="14.00" queueing_length="134.29" queueing_length_experimental="0.00"/>
        </lanes>
    </data>
    <data timestep="25.00">
        <lanes>
            <lane id="b1i_2" queueing_time="5.00" queueing_length="12.52" queueing_length_experimental="12.52"/>
            <lane id="c2i_2" queueing_time="1.00" queueing_length="6.00" queueing_length_experimental="6.00"/>
            <lane id="e1i_1" queueing_time="0.00" queueing_length="0.00" queueing_length_experimental="6.08"/>
            <lane id="j2i_2" queueing_time="15.00" queueing_length="134.29" queueing_length_experimental="0.00"/>
        </lanes>
    </data>
    <data timestep="26.00">
        <lanes>
            <lane id="b1i_2" queueing_time="6.00" queueing_length="12.51" queueing_length_experimental="19.20"/>
            <lane id="c2i_2" queueing_time="2.00" queueing_length="6.00" queueing_length_experimental="6.00"/>
            <lane id="e1i_1" queueing_time="1.00" queueing_length="6.04" queueing_length_experimental="6.04"/>
            <lane id="j2i_2" queueing_time="16.00" queueing_length="134.29" queueing_length_experimental="0.00"/>
        </lanes>
    </data>
    <data timestep="27.00">
        <lanes>
            <lane id="c2i_2" queueing_time="3.00" queueing_length="6.00" queueing_length_experimental="6.00"/>
            <lane id="e1i_1" queueing_time="2.00" queueing_length="6.01" queueing_length_experimental="6.01"/>
            <lane id="j2i_2" queueing_time="17.00" queueing_length="134.29" queueing_length_experimental="0.00"/>
        </lanes>
    </data>
    <data timestep="28.00">
        <lanes>
            <lane id="e1i_1" queueing_time="3.00" queueing_length="6.00" queueing_length_experimental="13.01"/>
            <lane id="j3i_2" queueing_time="1.00" queueing_length="136.39" queueing_length_experimental="0.00"/>
        </lanes>
    </data>
    <data timestep="29.00">
        <lanes>
            <lane id="e1i_1" queueing_time="4.00" queueing_length="6.00" queueing_length_experimental="12.74"/>
            <lane id="j3i_2" queueing_time="2.00" queueing_length="136.39" queueing_length_experimental="0.00"/>
        </lanes>
    </data>
    <data timestep="30.00">
        <lanes>
            <lane id="e1i_1" queueing_time="5.00" queueing_length="6.00" queueing_length_experimental="12.51"/>
            <lane id="e1i_2" queueing_time="1.00" queueing_length="6.00" queueing_length_experimental="6.00"/>
            <lane id="j3i_2" queueing_time="3.00" queueing_length="136.39" queueing_length_experimental="0.00"/>
        </lanes>
    </data>
    <data timestep="31.00">
        <lanes>
            <lane id="b2i_1" queueing_time="0.00" queueing_length="0.00" queueing_length_experimental="6.07"/>
            <lane id="f4i_2" queueing_time="1.00" queueing_length="136.68" queueing_length_experimental="0.00"/>
            <lane id="j3i_2" queueing_time="4.00" queueing_length="136.39" queueing_length_experimental="0.00"/>
        </lanes>
    </data>
    <data timestep="32.00">
        <lanes>
            <lane id="b2i_1" queueing_time="1.00" queueing_length="6.02" queueing_length_experimental="6.02"/>
            <lane id="c2i_1" queueing_time="1.00" queueing_length="137.09" queueing_length_experimental="0.00"/>
            <lane id="j3i_2" queueing_time="5.00" queueing_length="136.39" queueing_length_experimental="0.00"/>
        </lanes>
    </data>
    <data timestep="33.00">
        <lanes>
            <lane id="j3i_2" queueing_time="6.00" queueing_length="136.39" queueing_length_experimental="0.00"/>
        </lanes>
    </data>
    <data timestep="34.00">
        <lanes>
            <lane id="b1i_2" queueing_time="1.00" queueing_length="6.03" queueing_length_experimental="6.03"/>
            <lane id="j3i_2" queueing_time="7.00" queueing_length="136.39" queueing_length_experimental="0.00"/>
        </lanes>
    </data>
</queue-export>
