<?xml version="1.0" encoding="UTF-8"?>

<!-- generated on 01/16/19 15:12:41 by Eclipse SUMO GUI Version 1.0.1
<configuration xmlns:xsi="http://www.w3.org/2001/XMLSchema-instance" xsi:noNamespaceSchemaLocation="http://sumo.dlr.de/xsd/sumoConfiguration.xsd">

    <input>
        <net-file value="intersection.net.xml"/>
        <route-files value="intersectiontest.rou.xml"/>
    </input>

    <output>
        <queue-output value="queue.xml"/>
        <tripinfo-output value="tripinfo.xml"/>
    </output>

    <time>
        <begin value="0"/>
        <end value="3600"/>
    </time>

    <processing>
        <collision.mingap-factor value="0"/>
        <time-to-teleport value="100"/>
    </processing>

    <traci_server>
        <remote-port value="54979"/>
    </traci_server>

</configuration>
-->

<tripinfos xmlns:xsi="http://www.w3.org/2001/XMLSchema-instance" xsi:noNamespaceSchemaLocation="http://sumo.dlr.de/xsd/tripinfo_file.xsd">
    <tripinfo id="d3i.0" depart="1.00" departLane="d3i_0" departPos="5.10" departSpeed="0.00" departDelay="0.00" arrival="27.00" arrivalLane="d4o_0" arrivalPos="138.65" arrivalSpeed="10.69" duration="26.00" routeLength="277.20" waitingTime="0.00" waitingCount="0" stopTime="0.00" timeLoss="6.48" rerouteNo="0" devices="tripinfo_d3i.0" vType="car" speedFactor="1.05" vaporized=""/>
    <tripinfo id="a4i.0" depart="0.00" departLane="a4i_0" departPos="5.10" departSpeed="0.00" departDelay="0.00" arrival="28.00" arrivalLane="a1o_0" arrivalPos="138.65" arrivalSpeed="9.43" duration="28.00" routeLength="277.20" waitingTime="0.00" waitingCount="0" stopTime="0.00" timeLoss="6.29" rerouteNo="0" devices="tripinfo_a4i.0" vType="car" speedFactor="0.94" vaporized=""/>
    <tripinfo id="b1i.1" depart="4.00" departLane="b1i_0" departPos="5.10" departSpeed="0.00" departDelay="0.00" arrival="30.00" arrivalLane="b2o_0" arrivalPos="138.65" arrivalSpeed="12.20" duration="26.00" routeLength="277.20" waitingTime="0.00" waitingCount="0" stopTime="0.00" timeLoss="7.02" rerouteNo="0" devices="tripinfo_b1i.1" vType="car" speedFactor="1.12" vaporized=""/>
    <tripinfo id="d3i.1" depart="4.00" departLane="d3i_0" departPos="5.10" departSpeed="0.00" departDelay="1.00" arrival="31.00" arrivalLane="d4o_0" arrivalPos="138.65" arrivalSpeed="10.78" duration="27.00" routeLength="277.20" waitingTime="0.00" waitingCount="0" stopTime="0.00" timeLoss="7.09" rerouteNo="0" devices="tripinfo_d3i.1" vType="car" speedFactor="1.03" vaporized=""/>
    <tripinfo id="c2i.0" depart="1.00" departLane="c2i_0" departPos="5.10" departSpeed="0.00" departDelay="0.00" arrival="31.00" arrivalLane="c3o_0" arrivalPos="138.65" arrivalSpeed="9.22" duration="30.00" routeLength="277.20" waitingTime="0.00" waitingCount="0" stopTime="0.00" timeLoss="5.57" rerouteNo="0" devices="tripinfo_c2i.0" vType="car" speedFactor="0.83" vaporized=""/>
    <tripinfo id="b1i.2" depart="7.00" departLane="b1i_0" departPos="5.10" departSpeed="0.00" departDelay="1.00" arrival="35.00" arrivalLane="b2o_0" arrivalPos="138.65" arrivalSpeed="10.52" duration="28.00" routeLength="277.20" waitingTime="0.00" waitingCount="0" stopTime="0.00" timeLoss="7.67" rerouteNo="0" devices="tripinfo_b1i.2" vType="car" speedFactor="1.02" vaporized=""/>
    <tripinfo id="a4i.4" depart="9.00" departLane="a4i_0" departPos="5.10" departSpeed="0.00" departDelay="0.00" arrival="35.00" arrivalLane="a1o_0" arrivalPos="138.65" arrivalSpeed="12.60" duration="26.00" routeLength="277.20" waitingTime="0.00" waitingCount="0" stopTime="0.00" timeLoss="7.12" rerouteNo="0" devices="tripinfo_a4i.4" vType="car" speedFactor="1.15" vaporized=""/>
    <tripinfo id="d3i.3" depart="8.00" departLane="d3i_0" departPos="5.10" departSpeed="0.00" departDelay="3.00" arrival="36.00" arrivalLane="d4o_0" arrivalPos="138.65" arrivalSpeed="10.37" duration="28.00" routeLength="277.20" waitingTime="0.00" waitingCount="0" stopTime="0.00" timeLoss="6.57" rerouteNo="0" devices="tripinfo_d3i.3" vType="car" speedFactor="0.94" vaporized=""/>
    <tripinfo id="d3i.5" depart="12.00" departLane="d3i_0" departPos="5.10" departSpeed="0.00" departDelay="4.00" arrival="38.00" arrivalLane="d4o_0" arrivalPos="138.65" arrivalSpeed="11.65" duration="26.00" routeLength="277.20" waitingTime="0.00" waitingCount="0" stopTime="0.00" timeLoss="8.02" rerouteNo="0" devices="tripinfo_d3i.5" vType="car" speedFactor="1.18" vaporized=""/>
    <tripinfo id="b1i.4" depart="11.00" departLane="b1i_0" departPos="5.10" departSpeed="0.00" departDelay="0.00" arrival="39.00" arrivalLane="b2o_0" arrivalPos="138.65" arrivalSpeed="9.94" duration="28.00" routeLength="277.20" waitingTime="0.00" waitingCount="0" stopTime="0.00" timeLoss="7.12" rerouteNo="0" devices="tripinfo_b1i.4" vType="car" speedFactor="0.97" vaporized=""/>
    <tripinfo id="c2i.7" depart="17.00" departLane="c2i_0" departPos="5.10" departSpeed="0.00" departDelay="0.00" arrival="43.00" arrivalLane="c3o_0" arrivalPos="138.65" arrivalSpeed="12.36" duration="26.00" routeLength="277.20" waitingTime="0.00" waitingCount="0" stopTime="0.00" timeLoss="7.26" rerouteNo="0" devices="tripinfo_c2i.7" vType="car" speedFactor="1.12" vaporized=""/>
    <tripinfo id="b1i.5" depart="14.00" departLane="b1i_0" departPos="5.10" departSpeed="0.00" departDelay="1.00" arrival="43.00" arrivalLane="b2o_0" arrivalPos="138.65" arrivalSpeed="9.48" duration="29.00" routeLength="277.20" waitingTime="0.00" waitingCount="0" stopTime="0.00" timeLoss="6.62" rerouteNo="0" devices="tripinfo_b1i.5" vType="car" speedFactor="0.90" vaporized=""/>
    <tripinfo id="a4i.7" depart="16.00" departLane="a4i_0" departPos="5.10" departSpeed="0.00" departDelay="3.00" arrival="43.00" arrivalLane="a1o_0" arrivalPos="138.65" arrivalSpeed="10.48" duration="27.00" routeLength="277.20" waitingTime="0.00" waitingCount="0" stopTime="0.00" timeLoss="6.82" rerouteNo="0" devices="tripinfo_a4i.7" vType="car" speedFactor="1.00" vaporized=""/>
    <tripinfo id="d3i.6" depart="15.00" departLane="d3i_0" departPos="5.10" departSpeed="0.00" departDelay="4.00" arrival="44.00" arrivalLane="d4o_0" arrivalPos="138.65" arrivalSpeed="9.04" duration="29.00" routeLength="277.20" waitingTime="0.00" waitingCount="0" stopTime="0.00" timeLoss="6.39" rerouteNo="0" devices="tripinfo_d3i.6" vType="car" speedFactor="0.90" vaporized=""/>
    <tripinfo id="c3i.7" depart="17.00" departLane="c3i_0" departPos="5.10" departSpeed="0.00" departDelay="0.00" arrival="44.00" arrivalLane="c2o_2" arrivalPos="138.65" arrivalSpeed="8.00" duration="27.00" routeLength="293.16" waitingTime="5.00" waitingCount="1" stopTime="0.00" timeLoss="18.52" rerouteNo="0" devices="tripinfo_c3i.7" vType="car@c3i.7" speedFactor="1.02" vaporized=""/>
    <tripinfo id="b2i.3" depart="13.00" departLane="b2i_0" departPos="5.10" departSpeed="0.00" departDelay="5.00" arrival="45.00" arrivalLane="b1o_2" arrivalPos="138.65" arrivalSpeed="11.68" duration="32.00" routeLength="293.16" waitingTime="0.00" waitingCount="0" stopTime="0.00" timeLoss="12.51" rerouteNo="0" devices="tripinfo_b2i.3" vType="car" speedFactor="1.13" vaporized=""/>
    <tripinfo id="c3i.8" depart="18.00" departLane="c3i_0" departPos="5.10" departSpeed="0.00" departDelay="0.00" arrival="45.00" arrivalLane="c2o_2" arrivalPos="138.65" arrivalSpeed="8.00" duration="27.00" routeLength="293.16" waitingTime="1.00" waitingCount="1" stopTime="0.00" timeLoss="17.28" rerouteNo="0" devices="tripinfo_c3i.8" vType="car@c3i.8" speedFactor="0.91" vaporized=""/>
    <tripinfo id="d4i.7" depart="18.00" departLane="d4i_0" departPos="5.10" departSpeed="0.00" departDelay="0.00" arrival="47.00" arrivalLane="d3o_0" arrivalPos="138.65" arrivalSpeed="11.11" duration="29.00" routeLength="293.16" waitingTime="0.00" waitingCount="0" stopTime="0.00" timeLoss="9.99" rerouteNo="0" devices="tripinfo_d4i.7" vType="car@d4i.7" speedFactor="1.04" vaporized=""/>
    <tripinfo id="b1i.8" depart="22.00" departLane="b1i_0" departPos="5.10" departSpeed="0.00" departDelay="3.00" arrival="49.00" arrivalLane="b2o_0" arrivalPos="138.65" arrivalSpeed="10.94" duration="27.00" routeLength="277.20" waitingTime="0.00" waitingCount="0" stopTime="0.00" timeLoss="6.91" rerouteNo="0" devices="tripinfo_b1i.8" vType="car" speedFactor="1.02" vaporized=""/>
    <tripinfo id="d3i.9" depart="22.00" departLane="d3i_0" departPos="5.10" departSpeed="0.00" departDelay="8.00" arrival="49.00" arrivalLane="d4o_0" arrivalPos="138.65" arrivalSpeed="12.05" duration="27.00" routeLength="277.20" waitingTime="0.00" waitingCount="0" stopTime="0.00" timeLoss="7.53" rerouteNo="0" devices="tripinfo_d3i.9" vType="car" speedFactor="1.10" vaporized=""/>
    <tripinfo id="a1i.2" depart="4.00" departLane="a1i_0" departPos="5.10" departSpeed="0.00" departDelay="1.00" arrival="50.00" arrivalLane="a4o_2" arrivalPos="138.65" arrivalSpeed="10.32" duration="46.00" routeLength="293.16" waitingTime="5.00" waitingCount="2" stopTime="0.00" timeLoss="23.31" rerouteNo="0" devices="tripinfo_a1i.2" vType="car@a1i.2" speedFactor="0.94" vaporized=""/>
    <tripinfo id="d4i.5" depart="16.00" departLane="d4i_0" departPos="5.10" departSpeed="0.00" departDelay="1.00" arrival="52.00" arrivalLane="d3o_2" arrivalPos="138.65" arrivalSpeed="9.97" duration="36.00" routeLength="293.16" waitingTime="1.00" waitingCount="1" stopTime="0.00" timeLoss="12.83" rerouteNo="0" devices="tripinfo_d4i.5" vType="car@d4i.5" speedFactor="0.90" vaporized=""/>
    <tripinfo id="a1i.3" depart="8.00" departLane="a1i_0" departPos="5.10" departSpeed="0.00" departDelay="0.00" arrival="52.00" arrivalLane="a4o_2" arrivalPos="138.65" arrivalSpeed="9.82" duration="44.00" routeLength="293.16" waitingTime="1.00" waitingCount="1" stopTime="0.00" timeLoss="21.49" rerouteNo="0" devices="tripinfo_a1i.3" vType="car@a1i.3" speedFactor="0.95" vaporized=""/>
    <tripinfo id="c3i.6" depart="16.00" departLane="c3i_0" departPos="5.10" departSpeed="0.00" departDelay="1.00" arrival="53.00" arrivalLane="c2o_0" arrivalPos="138.65" arrivalSpeed="10.77" duration="37.00" routeLength="293.16" waitingTime="2.00" waitingCount="2" stopTime="0.00" timeLoss="18.79" rerouteNo="0" devices="tripinfo_c3i.6" vType="car@c3i.6" speedFactor="1.00" vaporized=""/>
    <tripinfo id="b1i.10" depart="26.00" departLane="b1i_0" departPos="5.10" departSpeed="0.00" departDelay="1.00" arrival="53.00" arrivalLane="b2o_0" arrivalPos="138.65" arrivalSpeed="10.51" duration="27.00" routeLength="277.20" waitingTime="0.00" waitingCount="0" stopTime="0.00" timeLoss="7.01" rerouteNo="0" devices="tripinfo_b1i.10" vType="car" speedFactor="1.01" vaporized=""/>
    <tripinfo id="d4i.6" depart="17.00" departLane="d4i_0" departPos="5.10" departSpeed="0.00" departDelay="1.00" arrival="54.00" arrivalLane="d3o_2" arrivalPos="138.65" arrivalSpeed="10.50" duration="37.00" routeLength="293.16" waitingTime="1.00" waitingCount="1" stopTime="0.00" timeLoss="16.34" rerouteNo="0" devices="tripinfo_d4i.6" vType="car@d4i.6" speedFactor="1.02" vaporized=""/>
    <tripinfo id="c2i.11" depart="26.00" departLane="c2i_0" departPos="5.10" departSpeed="0.00" departDelay="2.00" arrival="54.00" arrivalLane="c3o_0" arrivalPos="138.65" arrivalSpeed="9.37" duration="28.00" routeLength="277.20" waitingTime="0.00" waitingCount="0" stopTime="0.00" timeLoss="6.36" rerouteNo="0" devices="tripinfo_c2i.11" vType="car" speedFactor="0.92" vaporized=""/>
    <tripinfo id="c3i.0" depart="4.00" departLane="c3i_0" departPos="5.10" departSpeed="0.00" departDelay="0.00" arrival="55.00" arrivalLane="c2o_2" arrivalPos="138.65" arrivalSpeed="10.01" duration="51.00" routeLength="293.16" waitingTime="15.00" waitingCount="2" stopTime="0.00" timeLoss="29.93" rerouteNo="0" devices="tripinfo_c3i.0" vType="car@c3i.0" speedFactor="0.99" vaporized=""/>
    <tripinfo id="a1i.7" depart="19.00" departLane="a1i_0" departPos="5.10" departSpeed="0.00" departDelay="0.00" arrival="55.00" arrivalLane="a4o_2" arrivalPos="138.65" arrivalSpeed="11.20" duration="36.00" routeLength="293.16" waitingTime="1.00" waitingCount="1" stopTime="0.00" timeLoss="15.44" rerouteNo="0" devices="tripinfo_a1i.7" vType="car@a1i.7" speedFactor="1.02" vaporized=""/>
    <tripinfo id="b2i.8" depart="24.00" departLane="b2i_0" departPos="5.10" departSpeed="0.00" departDelay="2.00" arrival="55.00" arrivalLane="b1o_2" arrivalPos="138.65" arrivalSpeed="12.60" duration="31.00" routeLength="293.16" waitingTime="0.00" waitingCount="0" stopTime="0.00" timeLoss="11.96" rerouteNo="0" devices="tripinfo_b2i.8" vType="car" speedFactor="1.15" vaporized=""/>
    <tripinfo id="d3i.11" depart="26.00" departLane="d3i_0" departPos="5.10" departSpeed="0.00" departDelay="8.00" arrival="55.00" arrivalLane="d4o_0" arrivalPos="138.65" arrivalSpeed="9.35" duration="29.00" routeLength="277.20" waitingTime="0.00" waitingCount="0" stopTime="0.00" timeLoss="6.97" rerouteNo="0" devices="tripinfo_d3i.11" vType="car" speedFactor="0.91" vaporized=""/>
    <tripinfo id="a1i.0" depart="0.00" departLane="a1i_0" departPos="5.10" departSpeed="0.00" departDelay="0.00" arrival="58.00" arrivalLane="b1o_0" arrivalPos="138.65" arrivalSpeed="10.82" duration="58.00" routeLength="759.70" waitingTime="0.00" waitingCount="0" stopTime="0.00" timeLoss="9.55" rerouteNo="0" devices="tripinfo_a1i.0" vType="car" speedFactor="1.06" vaporized=""/>
    <tripinfo id="c3i.2" depart="8.00" departLane="c3i_0" departPos="5.10" departSpeed="0.00" departDelay="0.00" arrival="58.00" arrivalLane="c2o_2" arrivalPos="138.65" arrivalSpeed="10.05" duration="50.00" routeLength="293.16" waitingTime="10.00" waitingCount="1" stopTime="0.00" timeLoss="27.24" rerouteNo="0" devices="tripinfo_c3i.2" vType="car@c3i.2" speedFactor="0.93" vaporized=""/>
    <tripinfo id="a1i.9" depart="23.00" departLane="a1i_0" departPos="5.10" departSpeed="0.00" departDelay="0.00" arrival="59.00" arrivalLane="a4o_0" arrivalPos="138.65" arrivalSpeed="10.31" duration="36.00" routeLength="293.16" waitingTime="0.00" waitingCount="0" stopTime="0.00" timeLoss="16.52" rerouteNo="0" devices="tripinfo_a1i.9" vType="car@a1i.9" speedFactor="1.01" vaporized=""/>
    <tripinfo id="a4i.13" depart="29.00" departLane="a4i_0" departPos="5.10" departSpeed="0.00" departDelay="5.00" arrival="59.00" arrivalLane="a1o_0" arrivalPos="138.65" arrivalSpeed="8.40" duration="30.00" routeLength="277.20" waitingTime="0.00" waitingCount="0" stopTime="0.00" timeLoss="6.27" rerouteNo="0" devices="tripinfo_a4i.13" vType="car" speedFactor="0.83" vaporized=""/>
    <tripinfo id="c3i.3" depart="11.00" departLane="c3i_0" departPos="5.10" departSpeed="0.00" departDelay="0.00" arrival="60.00" arrivalLane="c2o_2" arrivalPos="138.65" arrivalSpeed="11.58" duration="49.00" routeLength="293.16" waitingTime="8.00" waitingCount="1" stopTime="0.00" timeLoss="28.80" rerouteNo="0" devices="tripinfo_c3i.3" vType="car@c3i.3" speedFactor="1.10" vaporized=""/>
    <tripinfo id="c2i.15" depart="34.00" departLane="c2i_0" departPos="5.10" departSpeed="0.00" departDelay="2.00" arrival="60.00" arrivalLane="c3o_0" arrivalPos="138.65" arrivalSpeed="11.36" duration="26.00" routeLength="277.20" waitingTime="0.00" waitingCount="0" stopTime="0.00" timeLoss="6.42" rerouteNo="0" devices="tripinfo_c2i.15" vType="car" speedFactor="1.03" vaporized=""/>
    <tripinfo id="a1i.8" depart="22.00" departLane="a1i_0" departPos="5.10" departSpeed="0.00" departDelay="0.00" arrival="61.00" arrivalLane="a4o_2" arrivalPos="138.65" arrivalSpeed="11.15" duration="39.00" routeLength="293.16" waitingTime="6.00" waitingCount="1" stopTime="0.00" timeLoss="17.81" rerouteNo="0" devices="tripinfo_a1i.8" vType="car@a1i.8" speedFactor="1.02" vaporized=""/>
    <tripinfo id="d3i.15" depart="34.00" departLane="d3i_0" departPos="5.10" departSpeed="0.00" departDelay="12.00" arrival="61.00" arrivalLane="d4o_0" arrivalPos="138.65" arrivalSpeed="11.23" duration="27.00" routeLength="277.20" waitingTime="0.00" waitingCount="0" stopTime="0.00" timeLoss="7.49" rerouteNo="0" devices="tripinfo_d3i.15" vType="car" speedFactor="1.04" vaporized=""/>
    <tripinfo id="a4i.17" depart="36.00" departLane="a4i_0" departPos="5.10" departSpeed="0.00" departDelay="6.00" arrival="62.00" arrivalLane="a1o_0" arrivalPos="138.65" arrivalSpeed="11.43" duration="26.00" routeLength="277.20" waitingTime="0.00" waitingCount="0" stopTime="0.00" timeLoss="7.06" rerouteNo="0" devices="tripinfo_a4i.17" vType="car" speedFactor="1.10" vaporized=""/>
    <tripinfo id="d4i.11" depart="27.00" departLane="d4i_0" departPos="5.10" departSpeed="0.00" departDelay="2.00" arrival="62.00" arrivalLane="d3o_2" arrivalPos="138.65" arrivalSpeed="10.93" duration="35.00" routeLength="293.16" waitingTime="1.00" waitingCount="1" stopTime="0.00" timeLoss="14.81" rerouteNo="0" devices="tripinfo_d4i.11" vType="car@d4i.11" speedFactor="1.07" vaporized=""/>
    <tripinfo id="c2i.16" depart="37.00" departLane="c2i_0" departPos="5.10" departSpeed="0.00" departDelay="2.00" arrival="62.00" arrivalLane="c3o_0" arrivalPos="138.65" arrivalSpeed="12.35" duration="25.00" routeLength="277.20" waitingTime="0.00" waitingCount="0" stopTime="0.00" timeLoss="6.93" rerouteNo="0" devices="tripinfo_c2i.16" vType="car" speedFactor="1.16" vaporized=""/>
    <tripinfo id="c3i.12" depart="30.00" departLane="c3i_0" departPos="5.10" departSpeed="0.00" departDelay="4.00" arrival="63.00" arrivalLane="c2o_2" arrivalPos="138.65" arrivalSpeed="8.99" duration="33.00" routeLength="293.16" waitingTime="0.00" waitingCount="0" stopTime="0.00" timeLoss="9.63" rerouteNo="0" devices="tripinfo_c3i.12" vType="car" speedFactor="0.89" vaporized=""/>
    <tripinfo id="a1i.10" depart="24.00" departLane="a1i_0" departPos="5.10" departSpeed="0.00" departDelay="0.00" arrival="67.00" arrivalLane="a4o_1" arrivalPos="138.65" arrivalSpeed="9.49" duration="43.00" routeLength="293.16" waitingTime="2.00" waitingCount="2" stopTime="0.00" timeLoss="19.32" rerouteNo="0" devices="tripinfo_a1i.10" vType="car@a1i.10" speedFactor="0.89" vaporized=""/>
    <tripinfo id="c3i.1" depart="5.00" departLane="c3i_0" departPos="5.10" departSpeed="0.00" departDelay="0.00" arrival="67.00" arrivalLane="d3o_0" arrivalPos="138.65" arrivalSpeed="9.94" duration="62.00" routeLength="759.70" waitingTime="0.00" waitingCount="0" stopTime="0.00" timeLoss="8.45" rerouteNo="0" devices="tripinfo_c3i.1" vType="car" speedFactor="0.94" vaporized=""/>
    <tripinfo id="b2i.1" depart="6.00" departLane="b2i_0" departPos="5.10" departSpeed="0.00" departDelay="0.00" arrival="68.00" arrivalLane="c3o_1" arrivalPos="138.65" arrivalSpeed="10.70" duration="62.00" routeLength="777.40" waitingTime="0.00" waitingCount="0" stopTime="0.00" timeLoss="10.97" rerouteNo="0" devices="tripinfo_b2i.1" vType="car" speedFactor="1.01" vaporized=""/>
    <tripinfo id="c2i.18" depart="41.00" departLane="c2i_0" departPos="5.10" departSpeed="0.00" departDelay="2.00" arrival="70.00" arrivalLane="c3o_0" arrivalPos="138.65" arrivalSpeed="9.77" duration="29.00" routeLength="277.20" waitingTime="0.00" waitingCount="0" stopTime="0.00" timeLoss="6.46" rerouteNo="0" devices="tripinfo_c2i.18" vType="car" speedFactor="0.91" vaporized=""/>
    <tripinfo id="b1i.18" depart="45.00" departLane="b1i_0" departPos="5.10" departSpeed="0.00" departDelay="6.00" arrival="72.00" arrivalLane="b2o_0" arrivalPos="138.65" arrivalSpeed="11.64" duration="27.00" routeLength="277.20" waitingTime="0.00" waitingCount="0" stopTime="0.00" timeLoss="7.57" rerouteNo="0" devices="tripinfo_b1i.18" vType="car" speedFactor="1.08" vaporized=""/>
    <tripinfo id="a4i.21" depart="44.00" departLane="a4i_0" departPos="5.10" departSpeed="0.00" departDelay="8.00" arrival="72.00" arrivalLane="a1o_0" arrivalPos="138.65" arrivalSpeed="9.59" duration="28.00" routeLength="277.20" waitingTime="0.00" waitingCount="0" stopTime="0.00" timeLoss="6.80" rerouteNo="0" devices="tripinfo_a4i.21" vType="car" speedFactor="0.94" vaporized=""/>
    <tripinfo id="c2i.19" depart="44.00" departLane="c2i_0" departPos="5.10" departSpeed="0.00" departDelay="4.00" arrival="72.00" arrivalLane="c3o_0" arrivalPos="138.65" arrivalSpeed="10.10" duration="28.00" routeLength="277.20" waitingTime="0.00" waitingCount="0" stopTime="0.00" timeLoss="7.41" rerouteNo="0" devices="tripinfo_c2i.19" vType="car" speedFactor="0.99" vaporized=""/>
    <tripinfo id="b2i.15" depart="37.00" departLane="b2i_0" departPos="5.10" departSpeed="0.00" departDelay="1.00" arrival="73.00" arrivalLane="b1o_1" arrivalPos="138.65" arrivalSpeed="11.95" duration="36.00" routeLength="293.16" waitingTime="1.00" waitingCount="1" stopTime="0.00" timeLoss="18.14" rerouteNo="0" devices="tripinfo_b2i.15" vType="car@b2i.15" speedFactor="1.13" vaporized=""/>
    <tripinfo id="b2i.17" depart="42.00" departLane="b2i_0" departPos="5.10" departSpeed="0.00" departDelay="0.00" arrival="73.00" arrivalLane="b1o_0" arrivalPos="138.65" arrivalSpeed="9.71" duration="31.00" routeLength="293.16" waitingTime="0.00" waitingCount="0" stopTime="0.00" timeLoss="10.32" rerouteNo="0" devices="tripinfo_b2i.17" vType="car@b2i.17" speedFactor="0.90" vaporized=""/>
    <tripinfo id="a1i.16" depart="38.00" departLane="a1i_0" departPos="5.10" departSpeed="0.00" departDelay="0.00" arrival="73.00" arrivalLane="a4o_2" arrivalPos="138.65" arrivalSpeed="11.12" duration="35.00" routeLength="293.16" waitingTime="0.00" waitingCount="0" stopTime="0.00" timeLoss="13.97" rerouteNo="0" devices="tripinfo_a1i.16" vType="car" speedFactor="1.00" vaporized=""/>
    <tripinfo id="c3i.17" depart="40.00" departLane="c3i_0" departPos="5.10" departSpeed="0.00" departDelay="8.00" arrival="74.00" arrivalLane="c2o_2" arrivalPos="138.65" arrivalSpeed="11.04" duration="34.00" routeLength="293.16" waitingTime="0.00" waitingCount="0" stopTime="0.00" timeLoss="13.53" rerouteNo="0" devices="tripinfo_c3i.17" vType="car@c3i.17" speedFactor="1.07" vaporized=""/>
    <tripinfo id="b2i.11" depart="29.00" departLane="b2i_0" departPos="5.10" departSpeed="0.00" departDelay="1.00" arrival="75.00" arrivalLane="b1o_2" arrivalPos="138.65" arrivalSpeed="10.36" duration="46.00" routeLength="293.16" waitingTime="5.00" waitingCount="1" stopTime="0.00" timeLoss="24.97" rerouteNo="0" devices="tripinfo_b2i.11" vType="car@b2i.11" speedFactor="1.01" vaporized=""/>
    <tripinfo id="a4i.5" depart="12.00" departLane="a4i_0" departPos="5.10" departSpeed="0.00" departDelay="1.00" arrival="75.00" arrivalLane="b1o_0" arrivalPos="138.65" arrivalSpeed="10.76" duration="63.00" routeLength="777.40" waitingTime="0.00" waitingCount="0" stopTime="0.00" timeLoss="11.74" rerouteNo="0" devices="tripinfo_a4i.5" vType="car" speedFactor="1.02" vaporized=""/>
    <tripinfo id="a4i.22" depart="47.00" departLane="a4i_0" departPos="5.10" departSpeed="0.00" departDelay="10.00" arrival="75.00" arrivalLane="a1o_0" arrivalPos="138.65" arrivalSpeed="10.33" duration="28.00" routeLength="277.20" waitingTime="0.00" waitingCount="0" stopTime="0.00" timeLoss="7.44" rerouteNo="0" devices="tripinfo_a4i.22" vType="car" speedFactor="1.00" vaporized=""/>
    <tripinfo id="d3i.23" depart="51.00" departLane="d3i_0" departPos="5.10" departSpeed="0.00" departDelay="15.00" arrival="77.00" arrivalLane="d4o_0" arrivalPos="138.65" arrivalSpeed="11.92" duration="26.00" routeLength="277.20" waitingTime="0.00" waitingCount="0" stopTime="0.00" timeLoss="6.97" rerouteNo="0" devices="tripinfo_d3i.23" vType="car" speedFactor="1.14" vaporized=""/>
    <tripinfo id="b2i.13" depart="33.00" departLane="b2i_0" departPos="5.10" departSpeed="0.00" departDelay="3.00" arrival="77.00" arrivalLane="b1o_2" arrivalPos="138.65" arrivalSpeed="11.09" duration="44.00" routeLength="293.16" waitingTime="2.00" waitingCount="1" stopTime="0.00" timeLoss="23.40" rerouteNo="0" devices="tripinfo_b2i.13" vType="car@b2i.13" speedFactor="1.03" vaporized=""/>
    <tripinfo id="c3i.18" depart="41.00" departLane="c3i_0" departPos="5.10" departSpeed="0.00" departDelay="4.00" arrival="77.00" arrivalLane="c2o_2" arrivalPos="138.65" arrivalSpeed="11.52" duration="36.00" routeLength="293.16" waitingTime="0.00" waitingCount="0" stopTime="0.00" timeLoss="15.55" rerouteNo="0" devices="tripinfo_c3i.18" vType="car@c3i.18" speedFactor="1.04" vaporized=""/>
    <tripinfo id="c2i.21" depart="48.00" departLane="c2i_0" departPos="5.10" departSpeed="0.00" departDelay="6.00" arrival="77.00" arrivalLane="c3o_0" arrivalPos="138.65" arrivalSpeed="9.32" duration="29.00" routeLength="277.20" waitingTime="0.00" waitingCount="0" stopTime="0.00" timeLoss="6.48" rerouteNo="0" devices="tripinfo_c2i.21" vType="car" speedFactor="0.89" vaporized=""/>
    <tripinfo id="d4i.8" depart="20.00" departLane="d4i_0" departPos="5.10" departSpeed="0.00" departDelay="0.00" arrival="78.00" arrivalLane="a4o_0" arrivalPos="138.65" arrivalSpeed="10.74" duration="58.00" routeLength="759.70" waitingTime="0.00" waitingCount="0" stopTime="0.00" timeLoss="8.43" rerouteNo="0" devices="tripinfo_d4i.8" vType="car" speedFactor="1.01" vaporized=""/>
    <tripinfo id="b2i.14" depart="36.00" departLane="b2i_0" departPos="5.10" departSpeed="0.00" departDelay="3.00" arrival="79.00" arrivalLane="b1o_2" arrivalPos="138.65" arrivalSpeed="11.06" duration="43.00" routeLength="293.16" waitingTime="1.00" waitingCount="1" stopTime="0.00" timeLoss="21.92" rerouteNo="0" devices="tripinfo_b2i.14" vType="car@b2i.14" speedFactor="1.01" vaporized=""/>
    <tripinfo id="b1i.20" depart="50.00" departLane="b1i_0" departPos="5.10" departSpeed="0.00" departDelay="9.00" arrival="79.00" arrivalLane="b2o_0" arrivalPos="138.65" arrivalSpeed="9.43" duration="29.00" routeLength="277.20" waitingTime="0.00" waitingCount="0" stopTime="0.00" timeLoss="7.00" rerouteNo="0" devices="tripinfo_b1i.20" vType="car" speedFactor="0.91" vaporized=""/>
    <tripinfo id="c2i.22" depart="51.00" departLane="c2i_0" departPos="5.10" departSpeed="0.00" departDelay="8.00" arrival="79.00" arrivalLane="c3o_0" arrivalPos="138.65" arrivalSpeed="11.23" duration="28.00" routeLength="277.20" waitingTime="0.00" waitingCount="0" stopTime="0.00" timeLoss="8.85" rerouteNo="0" devices="tripinfo_c2i.22" vType="car" speedFactor="1.09" vaporized=""/>
    <tripinfo id="b2i.2" depart="9.00" departLane="b2i_0" departPos="5.10" departSpeed="0.00" departDelay="2.00" arrival="80.00" arrivalLane="c2o_0" arrivalPos="138.65" arrivalSpeed="9.01" duration="71.00" routeLength="759.70" waitingTime="1.00" waitingCount="1" stopTime="0.00" timeLoss="10.00" rerouteNo="0" devices="tripinfo_b2i.2" vType="car" speedFactor="0.83" vaporized=""/>
    <tripinfo id="c2i.6" depart="15.00" departLane="c2i_0" departPos="5.10" departSpeed="0.00" departDelay="0.00" arrival="81.00" arrivalLane="d3o_0" arrivalPos="138.65" arrivalSpeed="10.44" duration="66.00" routeLength="777.40" waitingTime="0.00" waitingCount="0" stopTime="0.00" timeLoss="15.04" rerouteNo="0" devices="tripinfo_c2i.6" vType="car" speedFactor="1.00" vaporized=""/>
    <tripinfo id="b1i.21" depart="53.00" departLane="b1i_0" departPos="5.10" departSpeed="0.00" departDelay="11.00" arrival="81.00" arrivalLane="b2o_0" arrivalPos="138.65" arrivalSpeed="11.98" duration="28.00" routeLength="277.20" waitingTime="0.00" waitingCount="0" stopTime="0.00" timeLoss="8.87" rerouteNo="0" devices="tripinfo_b1i.21" vType="car" speedFactor="1.09" vaporized=""/>
    <tripinfo id="b2i.4" depart="14.00" departLane="b2i_0" departPos="5.10" departSpeed="0.00" departDelay="5.00" arrival="82.00" arrivalLane="c2o_0" arrivalPos="138.65" arrivalSpeed="10.53" duration="68.00" routeLength="759.70" waitingTime="0.00" waitingCount="0" stopTime="0.00" timeLoss="17.66" rerouteNo="0" devices="tripinfo_b2i.4" vType="car" speedFactor="1.01" vaporized=""/>
    <tripinfo id="d3i.24" depart="54.00" departLane="d3i_0" departPos="5.10" departSpeed="0.00" departDelay="17.00" arrival="83.00" arrivalLane="d4o_0" arrivalPos="138.65" arrivalSpeed="10.45" duration="29.00" routeLength="277.20" waitingTime="0.00" waitingCount="0" stopTime="0.00" timeLoss="7.79" rerouteNo="0" devices="tripinfo_d3i.24" vType="car" speedFactor="0.96" vaporized=""/>
    <tripinfo id="b2i.19" depart="46.00" departLane="b2i_0" departPos="5.10" departSpeed="0.00" departDelay="0.00" arrival="83.00" arrivalLane="b1o_2" arrivalPos="138.65" arrivalSpeed="9.20" duration="37.00" routeLength="293.16" waitingTime="0.00" waitingCount="0" stopTime="0.00" timeLoss="12.68" rerouteNo="0" devices="tripinfo_b2i.19" vType="car" speedFactor="0.89" vaporized=""/>
    <tripinfo id="d4i.23" depart="55.00" departLane="d4i_0" departPos="5.10" departSpeed="0.00" departDelay="6.00" arrival="83.00" arrivalLane="d3o_2" arrivalPos="138.65" arrivalSpeed="8.00" duration="28.00" routeLength="293.16" waitingTime="0.00" waitingCount="0" stopTime="0.00" timeLoss="17.74" rerouteNo="0" devices="tripinfo_d4i.23" vType="car@d4i.23" speedFactor="0.87" vaporized=""/>
    <tripinfo id="b2i.7" depart="21.00" departLane="b2i_0" departPos="5.10" departSpeed="0.00" departDelay="0.00" arrival="84.00" arrivalLane="c2o_0" arrivalPos="138.65" arrivalSpeed="11.68" duration="63.00" routeLength="759.70" waitingTime="0.00" waitingCount="0" stopTime="0.00" timeLoss="15.22" rerouteNo="0" devices="tripinfo_b2i.7" vType="car" speedFactor="1.09" vaporized=""/>
    <tripinfo id="b2i.20" depart="50.00" departLane="b2i_0" departPos="5.10" departSpeed="0.00" departDelay="0.00" arrival="84.00" arrivalLane="b1o_2" arrivalPos="138.65" arrivalSpeed="10.22" duration="34.00" routeLength="293.16" waitingTime="0.00" waitingCount="0" stopTime="0.00" timeLoss="12.02" rerouteNo="0" devices="tripinfo_b2i.20" vType="car" speedFactor="0.95" vaporized=""/>
    <tripinfo id="c2i.26" depart="59.00" departLane="c2i_0" departPos="5.10" departSpeed="0.00" departDelay="7.00" arrival="85.00" arrivalLane="c3o_0" arrivalPos="138.65" arrivalSpeed="12.22" duration="26.00" routeLength="277.20" waitingTime="0.00" waitingCount="0" stopTime="0.00" timeLoss="7.42" rerouteNo="0" devices="tripinfo_c2i.26" vType="car" speedFactor="1.10" vaporized=""/>