<?xml version="1.0" encoding="UTF-8"?>

<!-- generated on 12/05/18 23:38:53 by Eclipse SUMO GUI Version 1.0.0
<configuration xmlns:xsi="http://www.w3.org/2001/XMLSchema-instance" xsi:noNamespaceSchemaLocation="http://sumo.dlr.de/xsd/sumoConfiguration.xsd">

    <input>
        <net-file value="intersection.net.xml"/>
        <route-files value="intersectiontest.rou.xml"/>
    </input>

    <output>
        <queue-output value="queue.xml"/>
        <tripinfo-output value="tripinfo.xml"/>
    </output>

    <time>
        <begin value="0"/>
        <end value="3600"/>
    </time>

    <processing>
        <collision.mingap-factor value="0"/>
        <time-to-teleport value="100"/>
    </processing>

    <traci_server>
        <remote-port value="64100"/>
    </traci_server>

</configuration>
-->

<tripinfos xmlns:xsi="http://www.w3.org/2001/XMLSchema-instance" xsi:noNamespaceSchemaLocation="http://sumo.dlr.de/xsd/tripinfo_file.xsd">
    <tripinfo id="a4i.0" depart="3.00" departLane="a4i_0" departPos="5.10" departSpeed="0.00" departDelay="0.00" arrival="30.00" arrivalLane="a1o_0" arrivalPos="138.65" arrivalSpeed="10.27" duration="27.00" routeLength="277.20" waitingTime="0.00" waitingCount="0" stopTime="0.00" timeLoss="6.48" rerouteNo="0" devices="tripinfo_a4i.0" vType="car" speedFactor="1.01" vaporized=""/>
    <tripinfo id="a2i.0" depart="4.00" departLane="a2i_0" departPos="5.10" departSpeed="0.00" departDelay="0.00" arrival="31.00" arrivalLane="a3o_0" arrivalPos="138.65" arrivalSpeed="11.32" duration="27.00" routeLength="277.20" waitingTime="0.00" waitingCount="0" stopTime="0.00" timeLoss="7.46" rerouteNo="0" devices="tripinfo_a2i.0" vType="car" speedFactor="1.03" vaporized=""/>
    <tripinfo id="a1i.1" depart="3.00" departLane="a1i_0" departPos="5.10" departSpeed="0.00" departDelay="0.00" arrival="33.00" arrivalLane="a3o_1" arrivalPos="138.65" arrivalSpeed="9.90" duration="30.00" routeLength="294.90" waitingTime="0.00" waitingCount="0" stopTime="0.00" timeLoss="7.31" rerouteNo="0" devices="tripinfo_a1i.1" vType="car" speedFactor="0.94" vaporized=""/>
    <tripinfo id="a4i.2" depart="7.00" departLane="a4i_0" departPos="5.10" departSpeed="0.00" departDelay="0.00" arrival="33.00" arrivalLane="a1o_0" arrivalPos="138.65" arrivalSpeed="11.83" duration="26.00" routeLength="277.20" waitingTime="0.00" waitingCount="0" stopTime="0.00" timeLoss="6.59" rerouteNo="0" devices="tripinfo_a4i.2" vType="car" speedFactor="1.09" vaporized=""/>
    <tripinfo id="a3i.0" depart="6.00" departLane="a3i_0" departPos="5.10" departSpeed="0.00" departDelay="0.00" arrival="34.00" arrivalLane="a4o_0" arrivalPos="138.65" arrivalSpeed="10.32" duration="28.00" routeLength="277.20" waitingTime="0.00" waitingCount="0" stopTime="0.00" timeLoss="6.06" rerouteNo="0" devices="tripinfo_a3i.0" vType="car" speedFactor="0.94" vaporized=""/>
    <tripinfo id="a1i.0" depart="0.00" departLane="a1i_0" departPos="5.10" departSpeed="0.00" departDelay="0.00" arrival="38.00" arrivalLane="a4o_2" arrivalPos="138.65" arrivalSpeed="11.50" duration="38.00" routeLength="293.16" waitingTime="6.00" waitingCount="2" stopTime="0.00" timeLoss="17.71" rerouteNo="0" devices="tripinfo_a1i.0" vType="car" speedFactor="1.06" vaporized=""/>
    <tripinfo id="a1i.5" depart="11.00" departLane="a1i_0" departPos="5.10" departSpeed="0.00" departDelay="0.00" arrival="38.00" arrivalLane="a2o_0" arrivalPos="138.65" arrivalSpeed="11.29" duration="27.00" routeLength="277.20" waitingTime="0.00" waitingCount="0" stopTime="0.00" timeLoss="7.50" rerouteNo="0" devices="tripinfo_a1i.5" vType="car" speedFactor="1.05" vaporized=""/>
    <tripinfo id="a1i.2" depart="4.00" departLane="a1i_0" departPos="5.10" departSpeed="0.00" departDelay="0.00" arrival="38.00" arrivalLane="a3o_1" arrivalPos="138.65" arrivalSpeed="11.75" duration="34.00" routeLength="294.90" waitingTime="1.00" waitingCount="1" stopTime="0.00" timeLoss="14.14" rerouteNo="0" devices="tripinfo_a1i.2" vType="car@a1i.2" speedFactor="1.08" vaporized=""/>
</tripinfos>
